                         Program Version 4.0.0 -  RELEASE  -
|  1> ! PBE0
|  2> ! opt anfreq
|  3> * xyzfile 0 1 tryptophan.xyz **                         ****END OF INPUT****
 Total Charge           Charge          ....    0
 Multiplicity           Mult            ....    1
 Number of Electrons    NEL             ....  108
FINAL SINGLE POINT ENERGY      -685.105551457919
                    ***********************HURRAY********************

CARTESIAN COORDINATES (ANGSTROEM)
---------------------------------
  C      2.295323   -0.204785   -1.055942
  C      2.201234    1.145176   -0.663847
  C      1.031326    1.658852   -0.123044
  C     -0.050977    0.784111    0.020689
  C      0.025617   -0.582190   -0.355416
  C      1.222307   -1.070905   -0.908271
  C     -1.259011   -1.174856   -0.068924
  C     -2.035502   -0.160136    0.449762
  N     -1.316417    1.005200    0.502846
  C     -1.664837   -2.593753   -0.318115
  C     -0.970879   -3.655022    0.562104
  C     -1.438108   -3.603973    2.023403
  O     -1.819474   -4.576308    2.614911
  O     -1.371793   -2.411167    2.623197
  N     -1.128198   -4.960917   -0.028056
  H      3.230460   -0.571274   -1.485371
  H      3.065513    1.801274   -0.791730
  H      0.959675    2.706935    0.176755
  H      1.304826   -2.113720   -1.224353
  H     -3.071847   -0.192271    0.782938
  H     -1.660647    1.884517    0.860058
  H     -1.425657   -2.872133   -1.357182
  H     -2.758474   -2.694775   -0.213301
  H      0.108364   -3.412130    0.582365
  H     -1.127355   -1.726826    1.974589
  H     -2.116556   -5.214058   -0.002254
  H     -0.682623   -5.649816    0.576089

 Multiplicity           Mult            ....    1
 Number of Electrons    NEL             ....  108
 Basis Dimension        Dim             ....  270

ORBITAL ENERGIES
----------------

  NO   OCC          E(Eh)            E(eV)
   0   2.0000     -19.242531      -523.6159
   1   2.0000     -19.183993      -522.0230
   2   2.0000     -14.459040      -393.4505
   3   2.0000     -14.371274      -391.0623
   4   2.0000     -10.345779      -281.5230
   5   2.0000     -10.288371      -279.9608
   6   2.0000     -10.282290      -279.7953
   7   2.0000     -10.275746      -279.6173
   8   2.0000     -10.254779      -279.0467
   9   2.0000     -10.252081      -278.9733
  10   2.0000     -10.251205      -278.9495
  11   2.0000     -10.247465      -278.8477
  12   2.0000     -10.247008      -278.8353
  13   2.0000     -10.245748      -278.8010
  14   2.0000     -10.240668      -278.6627
  15   2.0000      -1.112575       -30.2747
  16   2.0000      -1.027691       -27.9649
  17   2.0000      -1.024199       -27.8699
  18   2.0000      -0.913859       -24.8674
  19   2.0000      -0.874029       -23.7835
  20   2.0000      -0.835977       -22.7481
  21   2.0000      -0.771580       -20.9958
  22   2.0000      -0.766160       -20.8483
  23   2.0000      -0.743257       -20.2250
  24   2.0000      -0.675535       -18.3822
  25   2.0000      -0.654001       -17.7963
  26   2.0000      -0.622969       -16.9519
  27   2.0000      -0.618328       -16.8255
  28   2.0000      -0.596310       -16.2264
  29   2.0000      -0.571696       -15.5566
  30   2.0000      -0.544710       -14.8223
  31   2.0000      -0.515275       -14.0213
  32   2.0000      -0.509330       -13.8596
  33   2.0000      -0.496232       -13.5032
  34   2.0000      -0.480491       -13.0748
  35   2.0000      -0.466339       -12.6897
  36   2.0000      -0.459396       -12.5008
  37   2.0000      -0.456564       -12.4237
  38   2.0000      -0.451749       -12.2927
  39   2.0000      -0.443964       -12.0809
  40   2.0000      -0.426638       -11.6094
  41   2.0000      -0.413182       -11.2433
  42   2.0000      -0.405897       -11.0450
  43   2.0000      -0.394919       -10.7463
  44   2.0000      -0.382997       -10.4219
  45   2.0000      -0.370428       -10.0799
  46   2.0000      -0.366810        -9.9814
  47   2.0000      -0.355631        -9.6772
  48   2.0000      -0.324178        -8.8213
  49   2.0000      -0.305312        -8.3080
  50   2.0000      -0.282368        -7.6836
  51   2.0000      -0.256907        -6.9908
  52   2.0000      -0.253245        -6.8911
  53   2.0000      -0.234596        -6.3837
  54   0.0000      -0.028976        -0.7885
  55   0.0000       0.009691         0.2637
  56   0.0000       0.024703         0.6722
  57   0.0000       0.043609         1.1867
  58   0.0000       0.051267         1.3951

MULLIKEN ATOMIC CHARGES
-----------------------
   0 C :   -0.017857
   1 C :   -0.031997
   2 C :   -0.033446
   3 C :    0.080523
   4 C :    0.030734
   5 C :   -0.049170
   6 C :   -0.268354
   7 C :    0.052511
   8 N :   -0.144014
   9 C :    0.121881
  10 C :   -0.144067
  11 C :    0.190264
  12 O :   -0.232043
  13 O :   -0.192441
  14 N :   -0.205496
  15 H :    0.018798
  16 H :    0.025508
  17 H :    0.001207
  18 H :    0.018139
  19 H :    0.038982
  20 H :    0.141679
  21 H :    0.060169
  22 H :    0.032400
  23 H :    0.074430
  24 H :    0.208216
  25 H :    0.108137
  26 H :    0.115311
Sum of atomic charges:   -0.0000000

LOEWDIN ATOMIC CHARGES
----------------------
   0 C :   -0.046508
   1 C :   -0.035033
   2 C :   -0.055830
   3 C :    0.006858
   4 C :   -0.055010
   5 C :   -0.028921
   6 C :   -0.112463
   7 C :    0.002726
   8 N :    0.062476
   9 C :   -0.033332
  10 C :   -0.045055
  11 C :    0.057723
  12 O :   -0.177688
  13 O :   -0.032421
  14 N :   -0.098143
  15 H :    0.034340
  16 H :    0.035455
  17 H :    0.033805
  18 H :    0.035836
  19 H :    0.033285
  20 H :    0.094323
  21 H :    0.047291
  22 H :    0.036549
  23 H :    0.040092
  24 H :    0.076329
  25 H :    0.059728
  26 H :    0.063586

  Mayer bond orders larger than 0.1
B(  0-C ,  1-C ) :   1.3288 B(  0-C ,  5-C ) :   1.4513 B(  0-C , 15-H ) :   0.9799
B(  1-C ,  2-C ) :   1.4356 B(  1-C , 16-H ) :   0.9781 B(  2-C ,  3-C ) :   1.3060
B(  2-C , 17-H ) :   0.9948 B(  3-C ,  4-C ) :   1.2749 B(  3-C ,  8-N ) :   1.1558
B(  4-C ,  5-C ) :   1.3198 B(  4-C ,  6-C ) :   1.2248 B(  5-C , 18-H ) :   0.9854
B(  6-C ,  7-C ) :   1.5150 B(  6-C ,  9-C ) :   1.0602 B(  7-C ,  8-N ) :   1.1764
B(  7-C , 19-H ) :   0.9838 B(  8-N , 20-H ) :   0.9343 B(  9-C , 10-C ) :   1.0224
B(  9-C , 21-H ) :   0.9091 B(  9-C , 22-H ) :   0.9188 B( 10-C , 11-C ) :   0.8765
B( 10-C , 14-N ) :   1.1235 B( 10-C , 23-H ) :   0.9124 B( 11-C , 12-O ) :   2.1382
B( 11-C , 13-O ) :   1.2050 B( 13-O , 24-H ) :   0.9325 B( 14-N , 25-H ) :   0.9668
B( 14-N , 26-H ) :   0.9595

FINAL SINGLE POINT ENERGY      -685.105551645171

DIPOLE MOMENT
-------------
                                X             Y             Z
Electronic contribution:     -1.51709       2.30684       4.03535
Nuclear contribution   :      1.40253      -0.52182      -4.74056
                        -----------------------------------------
Total Dipole Moment    :     -0.11456       1.78502      -0.70520
                        -----------------------------------------
Magnitude (a.u.)       :      1.92269
Magnitude (Debye)      :      4.88708

VIBRATIONAL FREQUENCIES
-----------------------

   0:         0.00 cm**-1
   1:         0.00 cm**-1
   2:         0.00 cm**-1
   3:         0.00 cm**-1
   4:         0.00 cm**-1
   5:         0.00 cm**-1
   6:        33.57 cm**-1
   7:        47.42 cm**-1
   8:        76.31 cm**-1
   9:        80.31 cm**-1
  10:       170.69 cm**-1
  11:       188.64 cm**-1
  12:       229.46 cm**-1
  13:       248.88 cm**-1
  14:       267.97 cm**-1
  15:       314.09 cm**-1
  16:       336.94 cm**-1
  17:       383.39 cm**-1
  18:       441.24 cm**-1
  19:       473.21 cm**-1
  20:       495.92 cm**-1
  21:       505.50 cm**-1
  22:       552.96 cm**-1
  23:       595.28 cm**-1
  24:       603.19 cm**-1
  25:       606.59 cm**-1
  26:       645.15 cm**-1
  27:       665.99 cm**-1
  28:       736.56 cm**-1
  29:       765.35 cm**-1
  30:       777.21 cm**-1
  31:       782.54 cm**-1
  32:       801.90 cm**-1
  33:       825.59 cm**-1
  34:       844.54 cm**-1
  35:       878.81 cm**-1
  36:       891.95 cm**-1
  37:       925.75 cm**-1
  38:       966.83 cm**-1
  39:       994.77 cm**-1
  40:      1008.25 cm**-1
  41:      1026.90 cm**-1
  42:      1046.47 cm**-1
  43:      1090.91 cm**-1
  44:      1120.35 cm**-1
  45:      1139.92 cm**-1
  46:      1157.42 cm**-1
  47:      1173.12 cm**-1
  48:      1198.53 cm**-1
  49:      1221.16 cm**-1
  50:      1234.71 cm**-1
  51:      1261.80 cm**-1
  52:      1269.61 cm**-1
  53:      1315.42 cm**-1
  54:      1328.40 cm**-1
  55:      1369.14 cm**-1
  56:      1383.38 cm**-1
  57:      1385.58 cm**-1
  58:      1417.79 cm**-1
  59:      1429.79 cm**-1
  60:      1458.80 cm**-1
  61:      1475.50 cm**-1
  62:      1508.89 cm**-1
  63:      1549.37 cm**-1
  64:      1624.49 cm**-1
  65:      1654.50 cm**-1
  66:      1658.98 cm**-1
  67:      1708.26 cm**-1
  68:      1909.81 cm**-1
  69:      3046.48 cm**-1
  70:      3061.76 cm**-1
  71:      3119.33 cm**-1
  72:      3204.46 cm**-1
  73:      3210.99 cm**-1
  74:      3220.27 cm**-1
  75:      3229.81 cm**-1
  76:      3274.77 cm**-1
  77:      3530.46 cm**-1
  78:      3604.38 cm**-1
  79:      3665.81 cm**-1
  80:      3705.71 cm**-1

IR SPECTRUM
-----------

 Mode    freq (cm**-1)   T**2         TX         TY         TZ
-------------------------------------------------------------------
   6:        33.57    2.326687  (  1.249157  -0.354380   0.800443)
   7:        47.42    3.844244  ( -1.455588   1.141328  -0.650290)
   8:        76.31    3.891355  (  1.304579  -1.038157   1.054353)
   9:        80.31    1.907145  ( -1.164355   0.341513  -0.659387)
  10:       170.69    2.414567  (  0.496495   0.371790  -1.424722)
  11:       188.64   33.339719  ( -5.067226   2.041592  -1.869450)
  12:       229.46    6.122882  ( -0.917788   0.743303  -2.174407)
  13:       248.88    4.001973  (  1.824939  -0.451066   0.684184)
  14:       267.97    4.309103  (  0.015748  -0.252271  -2.060392)
  15:       314.09   16.203055  (  1.033767   2.620617   2.875195)
  16:       336.94   14.836385  (  2.148281  -3.187018  -0.253360)
  17:       383.39    5.477755  ( -1.183366   1.937100  -0.570126)
  18:       441.24   17.700288  ( -1.441839   1.458191  -3.673564)
  19:       473.21    5.208264  (  1.061257   2.006889  -0.233225)
  20:       495.92   66.300023  ( -3.003658   2.169402  -7.250638)
  21:       505.50    9.237563  (  0.947299  -2.581534   1.294553)
  22:       552.96    0.196831  (  0.207537  -0.226246  -0.320269)
  23:       595.28    4.422695  ( -0.362760   1.183383  -1.700207)
  24:       603.19   20.481279  (  3.694832  -1.293762   2.270611)
  25:       606.59    7.439896  (  1.515366   1.702076   1.498832)
  26:       645.15   52.455804  (  2.995989  -4.197590   5.085282)
  27:       665.99   13.889872  (  0.159448  -3.428959   1.451444)
  28:       736.56    1.370515  (  0.671722  -0.300611  -0.910460)
  29:       765.35   65.853660  ( -2.099426   2.633262  -7.383224)
  30:       777.21    5.862256  ( -1.838888  -0.562311  -1.471243)
  31:       782.54    2.706976  ( -1.412094  -0.698572   0.474305)
  32:       801.90    1.133931  (  0.520040  -0.169483   0.913655)
  33:       825.59    1.209894  (  1.009033  -0.436369   0.036458)
  34:       844.54    8.150227  ( -0.714450  -0.015375   2.763974)
  35:       878.81    0.454614  (  0.226555  -0.629327  -0.085050)
  36:       891.95    1.349847  ( -0.115585   0.953344   0.653928)
  37:       925.75  116.785955  ( -1.670560   6.024032   8.815113)
  38:       966.83    1.882479  ( -0.220772   0.193712  -1.340229)
  39:       994.77   23.924972  (  0.122597   3.472097   3.443035)
  40:      1008.25    0.058684  (  0.006938  -0.002662   0.242133)
  41:      1026.90   38.573831  (  0.218514   4.794585   3.941831)
  42:      1046.47    8.509747  ( -2.491020  -1.492726   0.276290)
  43:      1090.91    7.645793  ( -1.743366  -0.357231   2.116330)
  44:      1120.35   28.145051  ( -3.108939   3.990873   1.597648)
  45:      1139.92    5.708486  (  0.210106   1.982579  -1.316708)
  46:      1157.42    1.148979  ( -0.352930  -1.002036   0.142634)
  47:      1173.12    0.561212  ( -0.438489   0.588389  -0.150790)
  48:      1198.53   26.255250  ( -0.293774  -5.065087  -0.716825)
  49:      1221.16    8.047842  (  0.503419  -2.218759  -1.694556)
  50:      1234.71   10.353857  (  0.367092  -2.481968  -2.014680)
  51:      1261.80    1.289556  ( -0.143327  -0.302710  -1.085071)
  52:      1269.61    6.118622  ( -0.374993  -2.315123   0.786261)
  53:      1315.42   62.177678  (  0.145281   6.298330   4.742110)
  54:      1328.40    0.373657  (  0.117078  -0.599574   0.021464)
  55:      1369.14    3.570171  (  1.311690   0.625482   1.207648)
  56:      1383.38  116.519771  ( -1.846773  -9.241196  -5.263982)
  57:      1385.58    8.412670  ( -0.440209   0.457744   2.830081)
  58:      1417.79   53.911672  (  0.510547  -4.905328  -5.439556)
  59:      1429.79   26.437679  ( -4.822673  -1.687354   0.576493)
  60:      1458.80   10.454131  (  1.246363   1.262453   2.703132)
  61:      1475.50   22.835191  ( -2.090636  -4.226033  -0.777868)
  62:      1508.89   22.344827  ( -4.228257   1.040281   1.839696)
  63:      1549.37    6.555427  ( -2.418274  -0.516606   0.663698)
  64:      1624.49   18.221647  (  0.883363   4.121969  -0.671333)
  65:      1654.50   23.588862  (  2.419715   3.935132  -1.499526)
  66:      1658.98    2.204643  ( -0.163260  -1.281186   0.732497)
  67:      1708.26    3.512751  (  1.828300  -0.393926  -0.122033)
  68:      1909.81  417.268131  (  6.369060  16.797282  -9.723914)
  69:      3046.48    3.978467  (  1.475143   1.244998   0.502395)
  70:      3061.76   25.080972  (  3.874790   2.266153   2.220704)
  71:      3119.33    5.959165  ( -2.195851  -0.387502   0.993603)
  72:      3204.46    0.358393  (  0.193956   0.560825  -0.079055)
  73:      3210.99    1.582199  (  1.182238   0.009348  -0.429448)
  74:      3220.27   11.095370  ( -0.341641   3.199474   0.861405)
  75:      3229.81    7.112036  ( -2.444791  -0.729424   0.776514)
  76:      3274.77    1.288631  ( -0.957593   0.332261   0.511125)
  77:      3530.46    4.882078  (  0.705969   1.673015  -1.258851)
  78:      3604.38    8.140733  (  1.976012  -1.512064   1.396342)
  79:      3665.81  562.898911  (  5.487632  18.394282 -13.944002)
  80:      3705.71  107.905486  ( -4.998207   8.053390   4.250450)

--------------------------
THERMOCHEMISTRY AT 298.15K
--------------------------

Temperature         ... 298.15 K
Pressure            ... 1.00 atm
Total Mass          ... 204.23 AMU

Throughout the following assumptions are being made:
  (1) The electronic state is orbitally nondegenerate
  (2) There are no thermally accessible electronically excited states
  (3) Hindered rotations indicated by low frequency modes are not
      treated as such but are treated as vibrations and this may
      cause some error
  (4) All equations used are the standard statistical mechanics
      equations for an ideal gas
  (5) All vibrations are strictly harmonic

freq.      33.57  E(vib)   ...       0.55
freq.      47.42  E(vib)   ...       0.53
freq.      76.31  E(vib)   ...       0.49
freq.      80.31  E(vib)   ...       0.49
freq.     170.69  E(vib)   ...       0.38
freq.     188.64  E(vib)   ...       0.36
freq.     229.46  E(vib)   ...       0.32
freq.     248.88  E(vib)   ...       0.31
freq.     267.97  E(vib)   ...       0.29
freq.     314.09  E(vib)   ...       0.25
freq.     336.94  E(vib)   ...       0.24
freq.     383.39  E(vib)   ...       0.20
freq.     441.24  E(vib)   ...       0.17
freq.     473.21  E(vib)   ...       0.15
freq.     495.92  E(vib)   ...       0.14
freq.     505.50  E(vib)   ...       0.14
freq.     552.96  E(vib)   ...       0.12
freq.     595.28  E(vib)   ...       0.10
freq.     603.19  E(vib)   ...       0.10
freq.     606.59  E(vib)   ...       0.10
freq.     645.15  E(vib)   ...       0.09
freq.     665.99  E(vib)   ...       0.08
freq.     736.56  E(vib)   ...       0.06
freq.     765.35  E(vib)   ...       0.06
freq.     777.21  E(vib)   ...       0.05
freq.     782.54  E(vib)   ...       0.05
freq.     801.90  E(vib)   ...       0.05
freq.     825.59  E(vib)   ...       0.04
freq.     844.54  E(vib)   ...       0.04
freq.     878.81  E(vib)   ...       0.04
freq.     891.95  E(vib)   ...       0.03
freq.     925.75  E(vib)   ...       0.03
freq.     966.83  E(vib)   ...       0.03
freq.     994.77  E(vib)   ...       0.02
freq.    1008.25  E(vib)   ...       0.02
freq.    1026.90  E(vib)   ...       0.02
freq.    1046.47  E(vib)   ...       0.02
freq.    1090.91  E(vib)   ...       0.02
freq.    1120.35  E(vib)   ...       0.01
freq.    1139.92  E(vib)   ...       0.01
freq.    1157.42  E(vib)   ...       0.01
freq.    1173.12  E(vib)   ...       0.01
freq.    1198.53  E(vib)   ...       0.01
freq.    1221.16  E(vib)   ...       0.01
freq.    1234.71  E(vib)   ...       0.01
freq.    1261.80  E(vib)   ...       0.01
freq.    1269.61  E(vib)   ...       0.01
freq.    1315.42  E(vib)   ...       0.01
freq.    1328.40  E(vib)   ...       0.01
freq.    1369.14  E(vib)   ...       0.01
freq.    1383.38  E(vib)   ...       0.00
freq.    1385.58  E(vib)   ...       0.00
freq.    1417.79  E(vib)   ...       0.00
freq.    1429.79  E(vib)   ...       0.00
freq.    1458.80  E(vib)   ...       0.00
freq.    1475.50  E(vib)   ...       0.00
freq.    1508.89  E(vib)   ...       0.00
freq.    1549.37  E(vib)   ...       0.00
freq.    1624.49  E(vib)   ...       0.00
freq.    1654.50  E(vib)   ...       0.00
freq.    1658.98  E(vib)   ...       0.00
freq.    1708.26  E(vib)   ...       0.00
freq.    1909.81  E(vib)   ...       0.00
freq.    3046.48  E(vib)   ...       0.00
freq.    3061.76  E(vib)   ...       0.00
freq.    3119.33  E(vib)   ...       0.00
freq.    3204.46  E(vib)   ...       0.00
freq.    3210.99  E(vib)   ...       0.00
freq.    3220.27  E(vib)   ...       0.00
freq.    3229.81  E(vib)   ...       0.00
freq.    3274.77  E(vib)   ...       0.00
freq.    3530.46  E(vib)   ...       0.00
freq.    3604.38  E(vib)   ...       0.00
freq.    3665.81  E(vib)   ...       0.00
freq.    3705.71  E(vib)   ...       0.00

------------
INNER ENERGY
------------

The inner energy is: U= E(el) + E(ZPE) + E(vib) + E(rot) + E(trans)
    E(el)   - is the total energy from the electronic structure calculation
              = E(kin-el) + E(nuc-el) + E(el-el) + E(nuc-nuc)
    E(ZPE)  - the the zero temperature vibrational energy from the frequency calculation
    E(vib)  - the the finite temperature correction to E(ZPE) due to population
              of excited vibrational states
    E(rot)  - is the rotational thermal energy
    E(trans)- is the translational thermal energy

Summary of contributions to the inner energy U:
Electronic energy                ...   -685.10555165 Eh
Zero point energy                ...      0.22133766 Eh     138.89 kcal/mol
Thermal vibrational correction   ...      0.01009891 Eh       6.34 kcal/mol
Thermal rotational correction    ...      0.00141627 Eh       0.89 kcal/mol
Thermal translational correction ...      0.00141627 Eh       0.89 kcal/mol
-----------------------------------------------------------------------
Total thermal energy                   -684.87128253 Eh

Summary of corrections to the electronic energy:
(perhaps to be used in another calculation)
Total thermal correction                  0.01293145 Eh       8.11 kcal/mol
Non-thermal (ZPE) correction              0.22133766 Eh     138.89 kcal/mol
-----------------------------------------------------------------------
Total correction                          0.23426911 Eh     147.01 kcal/mol

--------
ENTHALPY
--------

The enthalpy is H = U + kB*T
                kB is Boltzmann's constant
Total free energy                 ...   -684.87128253 Eh
Thermal Enthalpy correction       ...      0.00094421 Eh       0.59 kcal/mol
-----------------------------------------------------------------------
Total Enthalpy                    ...   -684.87033833 Eh

Vibrational entropy computed according to the QRRHO of S. Grimme
Chem.Eur.J. 2012 18 9955

check

-------
ENTROPY
-------

The entropy contributions are T*S = T*(S(el)+S(vib)+S(rot)+S(trans)
     S(el)   - electronic entropy
     S(vib)  - vibrational entropy
     S(rot)  - rotational entropy
     S(trans)- translational entropy
The entropies will be listed as mutliplied by the temperature to get
units of energy

Electronic entropy                ...      0.00000000 Eh      0.00 kcal/mol
Vibrational entropy               ...      0.01725609 Eh     10.83 kcal/mol
Rotational entropy                ...      0.01419608 Eh      8.91 kcal/mol
Translational entropy             ...      0.01988256 Eh     12.48 kcal/mol
-----------------------------------------------------------------------
Final entropy term                ...      0.05133473 Eh     32.21 kcal/mol

                             ****ORCA TERMINATED NORMALLY****
TOTAL RUN TIME: 0 days 6 hours 36 minutes 37 seconds 225 msec
