                         Program Version 4.0.0 -  RELEASE  -
|  1> ! PBE0
|  2> ! opt anfreq
|  3> * xyzfile 0 1 leucine.xyz **                         ****END OF INPUT****
 Total Charge           Charge          ....    0
 Multiplicity           Mult            ....    1
 Number of Electrons    NEL             ....   72
FINAL SINGLE POINT ENERGY      -440.847416192139
FINAL SINGLE POINT ENERGY      -440.857805035112
FINAL SINGLE POINT ENERGY      -440.860349637353
FINAL SINGLE POINT ENERGY      -440.860737773933
FINAL SINGLE POINT ENERGY      -440.861001023865
FINAL SINGLE POINT ENERGY      -440.861182407425
FINAL SINGLE POINT ENERGY      -440.861491785150
FINAL SINGLE POINT ENERGY      -440.861774199450
FINAL SINGLE POINT ENERGY      -440.862092148193
FINAL SINGLE POINT ENERGY      -440.862303539247
FINAL SINGLE POINT ENERGY      -440.862356060408
FINAL SINGLE POINT ENERGY      -440.862379946391
FINAL SINGLE POINT ENERGY      -440.862386355331
FINAL SINGLE POINT ENERGY      -440.862389171319
                    ***********************HURRAY********************

CARTESIAN COORDINATES (ANGSTROEM)
---------------------------------
  H     -1.456273   -0.678638    0.041102
  C     -1.111931    0.319380   -0.280663
  N      0.293972    0.460517    0.006414
  H      0.453328    0.656225    0.990211
  H      0.677325    1.229614   -0.541274
  C     -2.050760    1.377412    0.337149
  H     -1.763247    2.362781   -0.071371
  H     -3.082949    1.182176   -0.004452
  C     -2.038200    1.447980    1.865952
  H     -0.994052    1.628680    2.185145
  C     -2.513834    0.151957    2.515884
  H     -2.493134    0.230935    3.614121
  H     -1.890652   -0.710899    2.236051
  H     -3.550962   -0.076351    2.218570
  C     -2.866968    2.635598    2.345478
  H     -2.836221    2.729106    3.442467
  H     -3.923374    2.522437    2.049953
  H     -2.502405    3.581934    1.916438
  C     -1.290370    0.376515   -1.781872
  O     -0.552090    0.952463   -2.537418
  O     -2.408264   -0.237737   -2.185768
  H     -2.471320   -0.097554   -3.143308

 Multiplicity           Mult            ....    1
 Number of Electrons    NEL             ....   72
 Basis Dimension        Dim             ....  191

ORBITAL ENERGIES
----------------

  NO   OCC          E(Eh)            E(eV)
   0   2.0000     -19.262181      -524.1506
   1   2.0000     -19.201068      -522.4876
   2   2.0000     -14.367640      -390.9634
   3   2.0000     -10.360842      -281.9328
   4   2.0000     -10.270767      -279.4818
   5   2.0000     -10.245774      -278.8017
   6   2.0000     -10.237440      -278.5749
   7   2.0000     -10.229492      -278.3586
   8   2.0000     -10.229334      -278.3543
   9   2.0000      -1.134249       -30.8645
  10   2.0000      -1.037496       -28.2317
  11   2.0000      -0.911175       -24.7943
  12   2.0000      -0.830154       -22.5896
  13   2.0000      -0.756037       -20.5728
  14   2.0000      -0.702190       -19.1076
  15   2.0000      -0.684268       -18.6199
  16   2.0000      -0.609733       -16.5917
  17   2.0000      -0.576551       -15.6888
  18   2.0000      -0.541873       -14.7451
  19   2.0000      -0.504951       -13.7404
  20   2.0000      -0.498574       -13.5669
  21   2.0000      -0.475750       -12.9458
  22   2.0000      -0.457249       -12.4424
  23   2.0000      -0.450420       -12.2566
  24   2.0000      -0.447143       -12.1674
  25   2.0000      -0.427850       -11.6424
  26   2.0000      -0.410030       -11.1575
  27   2.0000      -0.400505       -10.8983
  28   2.0000      -0.390160       -10.6168
  29   2.0000      -0.373775       -10.1709
  30   2.0000      -0.352687        -9.5971
  31   2.0000      -0.345634        -9.4052
  32   2.0000      -0.340779        -9.2731
  33   2.0000      -0.335003        -9.1159
  34   2.0000      -0.292621        -7.9626
  35   2.0000      -0.247341        -6.7305
  36   0.0000       0.017841         0.4855
  37   0.0000       0.055153         1.5008
  38   0.0000       0.066465         1.8086
  39   0.0000       0.083228         2.2647
  40   0.0000       0.094054         2.5593

MULLIKEN ATOMIC CHARGES
-----------------------
   0 H :    0.049102
   1 C :   -0.038315
   2 N :   -0.218569
   3 H :    0.101636
   4 H :    0.119021
   5 C :   -0.010200
   6 H :    0.025142
   7 H :    0.034505
   8 C :   -0.199706
   9 H :    0.020669
  10 C :   -0.044069
  11 H :    0.045330
  12 H :    0.047028
  13 H :    0.037526
  14 C :   -0.027920
  15 H :    0.044110
  16 H :    0.036645
  17 H :    0.038052
  18 C :    0.198423
  19 O :   -0.249000
  20 O :   -0.198257
  21 H :    0.188846
Sum of atomic charges:   -0.0000000

LOEWDIN ATOMIC CHARGES
----------------------
   0 H :    0.033043
   1 C :   -0.023988
   2 N :   -0.101968
   3 H :    0.053140
   4 H :    0.059314
   5 C :   -0.045542
   6 H :    0.026268
   7 H :    0.028944
   8 C :   -0.056878
   9 H :    0.018646
  10 C :   -0.067371
  11 H :    0.030887
  12 H :    0.027149
  13 H :    0.029224
  14 C :   -0.062208
  15 H :    0.029200
  16 H :    0.027547
  17 H :    0.028241
  18 C :    0.086818
  19 O :   -0.184150
  20 O :   -0.034074
  21 H :    0.097757

  Mayer bond orders larger than 0.1
B(  0-H ,  1-C ) :   0.9030 B(  1-C ,  2-N ) :   1.0987 B(  1-C ,  5-C ) :   1.0015
B(  1-C , 18-C ) :   0.9316 B(  2-N ,  3-H ) :   0.9677 B(  2-N ,  4-H ) :   0.9472
B(  5-C ,  6-H ) :   0.9318 B(  5-C ,  7-H ) :   0.9251 B(  5-C ,  8-C ) :   1.0514
B(  8-C ,  9-H ) :   0.9158 B(  8-C , 10-C ) :   1.0565 B(  8-C , 14-C ) :   1.0733
B( 10-C , 11-H ) :   0.9673 B( 10-C , 12-H ) :   0.9660 B( 10-C , 13-H ) :   0.9638
B( 14-C , 15-H ) :   0.9692 B( 14-C , 16-H ) :   0.9660 B( 14-C , 17-H ) :   0.9658
B( 18-C , 19-O ) :   2.0851 B( 18-C , 20-O ) :   1.2287 B( 20-O , 21-H ) :   0.9459

FINAL SINGLE POINT ENERGY      -440.862390549772

DIPOLE MOMENT
-------------
                                X             Y             Z
Electronic contribution:      3.84788      -3.36574     -13.48671
Nuclear contribution   :     -4.52216       3.57144      13.97277
                        -----------------------------------------
Total Dipole Moment    :     -0.67428       0.20571       0.48606
                        -----------------------------------------
Magnitude (a.u.)       :      0.85628
Magnitude (Debye)      :      2.17650

VIBRATIONAL FREQUENCIES
-----------------------

   0:         0.00 cm**-1
   1:         0.00 cm**-1
   2:         0.00 cm**-1
   3:         0.00 cm**-1
   4:         0.00 cm**-1
   5:         0.00 cm**-1
   6:        35.70 cm**-1
   7:        53.83 cm**-1
   8:       108.47 cm**-1
   9:       135.19 cm**-1
  10:       210.41 cm**-1
  11:       227.36 cm**-1
  12:       237.46 cm**-1
  13:       254.16 cm**-1
  14:       321.95 cm**-1
  15:       337.70 cm**-1
  16:       389.20 cm**-1
  17:       423.03 cm**-1
  18:       442.30 cm**-1
  19:       540.11 cm**-1
  20:       620.18 cm**-1
  21:       663.03 cm**-1
  22:       761.54 cm**-1
  23:       811.53 cm**-1
  24:       844.10 cm**-1
  25:       865.19 cm**-1
  26:       907.60 cm**-1
  27:       924.01 cm**-1
  28:       964.43 cm**-1
  29:       984.33 cm**-1
  30:      1013.51 cm**-1
  31:      1127.95 cm**-1
  32:      1140.54 cm**-1
  33:      1161.62 cm**-1
  34:      1188.73 cm**-1
  35:      1196.56 cm**-1
  36:      1236.73 cm**-1
  37:      1260.38 cm**-1
  38:      1286.55 cm**-1
  39:      1327.60 cm**-1
  40:      1351.07 cm**-1
  41:      1368.60 cm**-1
  42:      1383.16 cm**-1
  43:      1393.46 cm**-1
  44:      1401.64 cm**-1
  45:      1446.55 cm**-1
  46:      1456.22 cm**-1
  47:      1463.62 cm**-1
  48:      1469.22 cm**-1
  49:      1476.05 cm**-1
  50:      1481.29 cm**-1
  51:      1609.51 cm**-1
  52:      1896.40 cm**-1
  53:      3028.47 cm**-1
  54:      3038.53 cm**-1
  55:      3044.74 cm**-1
  56:      3049.20 cm**-1
  57:      3069.69 cm**-1
  58:      3099.86 cm**-1
  59:      3135.58 cm**-1
  60:      3139.19 cm**-1
  61:      3145.24 cm**-1
  62:      3149.44 cm**-1
  63:      3544.81 cm**-1
  64:      3645.45 cm**-1
  65:      3804.56 cm**-1

IR SPECTRUM
-----------

 Mode    freq (cm**-1)   T**2         TX         TY         TZ
-------------------------------------------------------------------
   6:        35.70    0.814747  ( -0.294080   0.779418  -0.347523)
   7:        53.83    1.135431  (  0.513492  -0.923349   0.138503)
   8:       108.47    0.372954  ( -0.495871  -0.258725  -0.245207)
   9:       135.19    0.061818  (  0.154293   0.073294  -0.180664)
  10:       210.41   30.158541  ( -0.676315   1.965113  -5.083254)
  11:       227.36    3.961423  ( -0.766475   0.510265  -1.764531)
  12:       237.46    9.334292  (  0.772703  -1.055182   2.761125)
  13:       254.16    1.010745  (  0.056788   0.359848  -0.937033)
  14:       321.95    2.189771  ( -0.513915   1.073039  -0.879914)
  15:       337.70    0.987860  (  0.681730   0.031795  -0.722560)
  16:       389.20    2.753473  ( -1.259829   1.042633   0.281463)
  17:       423.03    1.317035  ( -0.221083   1.044122   0.421860)
  18:       442.30    2.863550  (  0.383083   1.302034   1.010695)
  19:       540.11   23.422476  ( -4.395965  -0.574612  -1.941079)
  20:       620.18   63.682235  ( -3.214450   6.860049   2.507841)
  21:       663.03   46.731677  ( -4.651427   1.350504  -4.824110)
  22:       761.54   36.449457  ( -1.351176   5.656470   1.621149)
  23:       811.53  187.615442  ( 10.834693  -7.020570  -4.575640)
  24:       844.10   28.135095  ( -4.829410   2.160894  -0.377404)
  25:       865.19   14.826098  ( -2.780363   2.623096   0.463732)
  26:       907.60    6.278942  (  2.277382   0.239027   1.017516)
  27:       924.01    2.696180  (  0.983448  -1.280462  -0.299041)
  28:       964.43    1.400934  ( -1.169258   0.123420   0.136154)
  29:       984.33    3.551858  ( -0.928736   0.818441   1.421078)
  30:      1013.51    4.507226  ( -1.290286   1.077528  -1.296658)
  31:      1127.95    7.228916  (  2.209304  -1.427242  -0.557558)
  32:      1140.54    2.208413  ( -1.148226   0.849813   0.409645)
  33:      1161.62   24.525965  ( -4.398381  -2.115519  -0.839517)
  34:      1188.73  150.017507  ( -8.248375  -4.991710  -7.554115)
  35:      1196.56   37.402624  (  5.136696   2.589644   2.076228)
  36:      1236.73   25.128916  ( -3.066176  -2.932512  -2.669805)
  37:      1260.38   22.333783  ( -2.500237  -1.921363  -3.520080)
  38:      1286.55    2.197792  (  0.949848  -0.313098  -1.094326)
  39:      1327.60    6.826151  ( -1.333970  -1.140297  -1.935561)
  40:      1351.07    6.484585  ( -1.713253  -1.095795  -1.532509)
  41:      1368.60   25.611318  (  2.642032   0.593463   4.275370)
  42:      1383.16   10.550600  ( -0.596108  -0.525099  -3.149528)
  43:      1393.46   12.076358  (  0.342192  -3.458209  -0.007472)
  44:      1401.64   10.037576  (  2.020708   1.935349  -1.486182)
  45:      1446.55    2.728653  (  0.451102   1.160883   1.085131)
  46:      1456.22    4.842853  ( -0.584038  -0.599000  -2.035424)
  47:      1463.62   35.228509  ( -2.524508  -3.385532  -4.170557)
  48:      1469.22   28.168966  ( -2.779228  -0.755488  -4.458037)
  49:      1476.05    6.535444  (  2.506245  -0.504163   0.000498)
  50:      1481.29   15.415317  ( -1.719381  -0.427794  -3.503718)
  51:      1609.51   52.669072  ( -5.991421  -3.840910  -1.421041)
  52:      1896.40  294.415175  ( 12.581642   7.057604  -9.290193)
  53:      3028.47   18.156092  (  4.060086   0.845539   0.978190)
  54:      3038.53   16.406429  ( -2.046708   2.188731  -2.725228)
  55:      3044.74   27.447784  ( -2.257811   4.694517   0.558196)
  56:      3049.20   14.596842  (  3.079599   1.105529  -1.972490)
  57:      3069.69   10.830028  ( -1.218525  -3.021311   0.465734)
  58:      3099.86   26.447011  (  3.990690   3.209287  -0.471042)
  59:      3135.58    6.716135  (  1.531678   1.999265   0.610767)
  60:      3139.19   33.987310  ( -4.769368  -1.028505  -3.191021)
  61:      3145.24   21.487491  (  0.709655   2.392512  -3.906375)
  62:      3149.44   22.586740  ( -2.281662   2.443369   3.377974)
  63:      3544.81    6.930343  (  0.929677   1.624948  -1.850834)
  64:      3645.45    9.116243  (  0.726926   0.875764  -2.796580)
  65:      3804.56   91.499707  ( -2.396780  -0.212593  -9.257967)

--------------------------
THERMOCHEMISTRY AT 298.15K
--------------------------

Temperature         ... 298.15 K
Pressure            ... 1.00 atm
Total Mass          ... 131.17 AMU

Throughout the following assumptions are being made:
  (1) The electronic state is orbitally nondegenerate
  (2) There are no thermally accessible electronically excited states
  (3) Hindered rotations indicated by low frequency modes are not
      treated as such but are treated as vibrations and this may
      cause some error
  (4) All equations used are the standard statistical mechanics
      equations for an ideal gas
  (5) All vibrations are strictly harmonic

freq.      35.70  E(vib)   ...       0.54
freq.      53.83  E(vib)   ...       0.52
freq.     108.47  E(vib)   ...       0.45
freq.     135.19  E(vib)   ...       0.42
freq.     210.41  E(vib)   ...       0.34
freq.     227.36  E(vib)   ...       0.33
freq.     237.46  E(vib)   ...       0.32
freq.     254.16  E(vib)   ...       0.30
freq.     321.95  E(vib)   ...       0.25
freq.     337.70  E(vib)   ...       0.24
freq.     389.20  E(vib)   ...       0.20
freq.     423.03  E(vib)   ...       0.18
freq.     442.30  E(vib)   ...       0.17
freq.     540.11  E(vib)   ...       0.12
freq.     620.18  E(vib)   ...       0.09
freq.     663.03  E(vib)   ...       0.08
freq.     761.54  E(vib)   ...       0.06
freq.     811.53  E(vib)   ...       0.05
freq.     844.10  E(vib)   ...       0.04
freq.     865.19  E(vib)   ...       0.04
freq.     907.60  E(vib)   ...       0.03
freq.     924.01  E(vib)   ...       0.03
freq.     964.43  E(vib)   ...       0.03
freq.     984.33  E(vib)   ...       0.02
freq.    1013.51  E(vib)   ...       0.02
freq.    1127.95  E(vib)   ...       0.01
freq.    1140.54  E(vib)   ...       0.01
freq.    1161.62  E(vib)   ...       0.01
freq.    1188.73  E(vib)   ...       0.01
freq.    1196.56  E(vib)   ...       0.01
freq.    1236.73  E(vib)   ...       0.01
freq.    1260.38  E(vib)   ...       0.01
freq.    1286.55  E(vib)   ...       0.01
freq.    1327.60  E(vib)   ...       0.01
freq.    1351.07  E(vib)   ...       0.01
freq.    1368.60  E(vib)   ...       0.01
freq.    1383.16  E(vib)   ...       0.00
freq.    1393.46  E(vib)   ...       0.00
freq.    1401.64  E(vib)   ...       0.00
freq.    1446.55  E(vib)   ...       0.00
freq.    1456.22  E(vib)   ...       0.00
freq.    1463.62  E(vib)   ...       0.00
freq.    1469.22  E(vib)   ...       0.00
freq.    1476.05  E(vib)   ...       0.00
freq.    1481.29  E(vib)   ...       0.00
freq.    1609.51  E(vib)   ...       0.00
freq.    1896.40  E(vib)   ...       0.00
freq.    3028.47  E(vib)   ...       0.00
freq.    3038.53  E(vib)   ...       0.00
freq.    3044.74  E(vib)   ...       0.00
freq.    3049.20  E(vib)   ...       0.00
freq.    3069.69  E(vib)   ...       0.00
freq.    3099.86  E(vib)   ...       0.00
freq.    3135.58  E(vib)   ...       0.00
freq.    3139.19  E(vib)   ...       0.00
freq.    3145.24  E(vib)   ...       0.00
freq.    3149.44  E(vib)   ...       0.00
freq.    3544.81  E(vib)   ...       0.00
freq.    3645.45  E(vib)   ...       0.00
freq.    3804.56  E(vib)   ...       0.00

------------
INNER ENERGY
------------

The inner energy is: U= E(el) + E(ZPE) + E(vib) + E(rot) + E(trans)
    E(el)   - is the total energy from the electronic structure calculation
              = E(kin-el) + E(nuc-el) + E(el-el) + E(nuc-nuc)
    E(ZPE)  - the the zero temperature vibrational energy from the frequency calculation
    E(vib)  - the the finite temperature correction to E(ZPE) due to population
              of excited vibrational states
    E(rot)  - is the rotational thermal energy
    E(trans)- is the translational thermal energy

Summary of contributions to the inner energy U:
Electronic energy                ...   -440.86239055 Eh
Zero point energy                ...      0.19385970 Eh     121.65 kcal/mol
Thermal vibrational correction   ...      0.00798675 Eh       5.01 kcal/mol
Thermal rotational correction    ...      0.00141627 Eh       0.89 kcal/mol
Thermal translational correction ...      0.00141627 Eh       0.89 kcal/mol
-----------------------------------------------------------------------
Total thermal energy                   -440.65771156 Eh

Summary of corrections to the electronic energy:
(perhaps to be used in another calculation)
Total thermal correction                  0.01081929 Eh       6.79 kcal/mol
Non-thermal (ZPE) correction              0.19385970 Eh     121.65 kcal/mol
-----------------------------------------------------------------------
Total correction                          0.20467899 Eh     128.44 kcal/mol

--------
ENTHALPY
--------

The enthalpy is H = U + kB*T
                kB is Boltzmann's constant
Total free energy                 ...   -440.65771156 Eh
Thermal Enthalpy correction       ...      0.00094421 Eh       0.59 kcal/mol
-----------------------------------------------------------------------
Total Enthalpy                    ...   -440.65676735 Eh

Vibrational entropy computed according to the QRRHO of S. Grimme
Chem.Eur.J. 2012 18 9955

check

-------
ENTROPY
-------

The entropy contributions are T*S = T*(S(el)+S(vib)+S(rot)+S(trans)
     S(el)   - electronic entropy
     S(vib)  - vibrational entropy
     S(rot)  - rotational entropy
     S(trans)- translational entropy
The entropies will be listed as mutliplied by the temperature to get
units of energy

Electronic entropy                ...      0.00000000 Eh      0.00 kcal/mol
Vibrational entropy               ...      0.01391555 Eh      8.73 kcal/mol
Rotational entropy                ...      0.01299700 Eh      8.16 kcal/mol
Translational entropy             ...      0.01925556 Eh     12.08 kcal/mol
-----------------------------------------------------------------------
Final entropy term                ...      0.04616812 Eh     28.97 kcal/mol

CAUTION: The rotational entropy is not quite correctly treated here
         because it includes a symmetry number that is not yet correctly
         implemented in ORCA!
For a nonlinear molecule the correct rotational entropy is:
    S(rot) = R*(ln(qrot/sn)+1.5)
    R    = 8.31441 J/mol/K = 1.987191683e-3 kcal/mol/K
    qrot = 636657.1709291
    sn is the rotational symmetry number. We have assumed 3 here
       if it is different for your molecule then you should correct
       the printed rotational entropy by manually evaluating the equation
       as given above

For convenience we print out the resulting values for sn=1 - 12:
 sn= 1  qrot/sn=  636657.1709 T*S(rot)=     8.81 kcal/mol T*S(tot)=    29.62 kcal/mol
 sn= 2  qrot/sn=  318328.5855 T*S(rot)=     8.40 kcal/mol T*S(tot)=    29.21 kcal/mol

                             ****ORCA TERMINATED NORMALLY****
TOTAL RUN TIME: 0 days 2 hours 4 minutes 8 seconds 278 msec
