                         Program Version 4.0.0 -  RELEASE  -
|  1> ! PBE0
|  2> ! opt anfreq
|  3> * xyzfile 0 1 glutamic.xyz **                         ****END OF INPUT****
 Total Charge           Charge          ....    0
 Multiplicity           Mult            ....    1
 Number of Electrons    NEL             ....   78
FINAL SINGLE POINT ENERGY      -550.599260440438
FINAL SINGLE POINT ENERGY      -550.609748373718
FINAL SINGLE POINT ENERGY      -550.612874339327
FINAL SINGLE POINT ENERGY      -550.613410532628
FINAL SINGLE POINT ENERGY      -550.613445310157
FINAL SINGLE POINT ENERGY      -550.613622186783
FINAL SINGLE POINT ENERGY      -550.613644025277
FINAL SINGLE POINT ENERGY      -550.613684851229
FINAL SINGLE POINT ENERGY      -550.613694678084
FINAL SINGLE POINT ENERGY      -550.613706896600
FINAL SINGLE POINT ENERGY      -550.613711046048
                    ***********************HURRAY********************

CARTESIAN COORDINATES (ANGSTROEM)
---------------------------------
  C      1.027352    0.041813    0.052807
  C      0.465128   -0.735394    1.226931
  C     -1.047821   -0.746709    1.251300
  O     -1.739787   -0.318799    0.372874
  O     -1.596719   -1.302624    2.345276
  C      2.560262    0.099294    0.072255
  C      3.091100    0.864104   -1.148242
  O      3.755027    1.856386   -1.056133
  O      2.772122    0.358140   -2.348364
  N      3.034671    0.650661    1.317248
  H      0.623327    1.067895    0.069817
  H      0.650532   -0.399048   -0.884508
  H      0.863856   -0.314102    2.165210
  H      0.811316   -1.785423    1.202618
  H     -0.908700   -1.572652    2.965177
  H      2.942098   -0.937403   -0.012357
  H      2.225360   -0.430724   -2.247753
  H      2.886894    1.660880    1.298804
  H      4.045251    0.542235    1.377411

 Multiplicity           Mult            ....    1
 Number of Electrons    NEL             ....   78
 Basis Dimension        Dim             ....  185

ORBITAL ENERGIES
----------------

  NO   OCC          E(Eh)            E(eV)
   0   2.0000     -19.268409      -524.3201
   1   2.0000     -19.263904      -524.1975
   2   2.0000     -19.204155      -522.5716
   3   2.0000     -19.200037      -522.4596
   4   2.0000     -14.391312      -391.6075
   5   2.0000     -10.368759      -282.1483
   6   2.0000     -10.366117      -282.0764
   7   2.0000     -10.295880      -280.1651
   8   2.0000     -10.266582      -279.3679
   9   2.0000     -10.265133      -279.3285
  10   2.0000      -1.135429       -30.8966
  11   2.0000      -1.131605       -30.7925
  12   2.0000      -1.049780       -28.5660
  13   2.0000      -1.045810       -28.4579
  14   2.0000      -0.933717       -25.4077
  15   2.0000      -0.829038       -22.5593
  16   2.0000      -0.748180       -20.3590
  17   2.0000      -0.669173       -18.2091
  18   2.0000      -0.644805       -17.5460
  19   2.0000      -0.631518       -17.1845
  20   2.0000      -0.577005       -15.7011
  21   2.0000      -0.545962       -14.8564
  22   2.0000      -0.528779       -14.3888
  23   2.0000      -0.506055       -13.7705
  24   2.0000      -0.487912       -13.2768
  25   2.0000      -0.476595       -12.9688
  26   2.0000      -0.468432       -12.7467
  27   2.0000      -0.455894       -12.4055
  28   2.0000      -0.437320       -11.9001
  29   2.0000      -0.425108       -11.5678
  30   2.0000      -0.419285       -11.4093
  31   2.0000      -0.396865       -10.7992
  32   2.0000      -0.387559       -10.5460
  33   2.0000      -0.373357       -10.1596
  34   2.0000      -0.344377        -9.3710
  35   2.0000      -0.341142        -9.2829
  36   2.0000      -0.305510        -8.3134
  37   2.0000      -0.293582        -7.9888
  38   2.0000      -0.276003        -7.5104
  39   0.0000       0.003881         0.1056
  40   0.0000       0.013487         0.3670
  41   0.0000       0.028703         0.7810
  42   0.0000       0.039689         1.0800
  43   0.0000       0.070584         1.9207

MULLIKEN ATOMIC CHARGES
-----------------------
   0 C :   -0.056809
   1 C :   -0.121887
   2 C :    0.208879
   3 O :   -0.225526
   4 O :   -0.181128
   5 C :   -0.126923
   6 C :    0.210517
   7 O :   -0.216316
   8 O :   -0.174754
   9 N :   -0.214633
  10 H :    0.063432
  11 H :    0.041419
  12 H :    0.074587
  13 H :    0.061721
  14 H :    0.184328
  15 H :    0.049049
  16 H :    0.185910
  17 H :    0.119845
  18 H :    0.118289
Sum of atomic charges:    0.0000000

LOEWDIN ATOMIC CHARGES
----------------------
   0 C :   -0.039406
   1 C :   -0.092791
   2 C :    0.078179
   3 O :   -0.162473
   4 O :   -0.032916
   5 C :   -0.047638
   6 C :    0.062999
   7 O :   -0.161438
   8 O :   -0.024680
   9 N :   -0.092878
  10 H :    0.043569
  11 H :    0.029278
  12 H :    0.045057
  13 H :    0.046443
  14 H :    0.094007
  15 H :    0.034180
  16 H :    0.090411
  17 H :    0.064185
  18 H :    0.065911

  Mayer bond orders larger than 0.1
B(  0-C ,  1-C ) :   1.0702 B(  0-C ,  5-C ) :   1.0196 B(  0-C , 10-H ) :   0.9399
B(  0-C , 11-H ) :   0.9359 B(  1-C ,  2-C ) :   0.9636 B(  1-C , 12-H ) :   0.9148
B(  1-C , 13-H ) :   0.9188 B(  2-C ,  3-O ) :   2.1109 B(  2-C ,  4-O ) :   1.2012
B(  4-O , 14-H ) :   0.9584 B(  5-C ,  6-C ) :   0.8992 B(  5-C ,  9-N ) :   1.1088
B(  5-C , 15-H ) :   0.9058 B(  6-C ,  7-O ) :   2.1533 B(  6-C ,  8-O ) :   1.1948
B(  8-O , 16-H ) :   0.9548 B(  9-N , 17-H ) :   0.9627 B(  9-N , 18-H ) :   0.9657

FINAL SINGLE POINT ENERGY      -550.613712539309

DIPOLE MOMENT
-------------
                                X             Y             Z
Electronic contribution:     -2.11252       1.25550      -2.78129
Nuclear contribution   :      2.86125      -2.64007       3.77611
                        -----------------------------------------
Total Dipole Moment    :      0.74873      -1.38457       0.99482
                        -----------------------------------------
Magnitude (a.u.)       :      1.86206
Magnitude (Debye)      :      4.73299

VIBRATIONAL FREQUENCIES
-----------------------

   0:         0.00 cm**-1
   1:         0.00 cm**-1
   2:         0.00 cm**-1
   3:         0.00 cm**-1
   4:         0.00 cm**-1
   5:         0.00 cm**-1
   6:        17.36 cm**-1
   7:        47.11 cm**-1
   8:        69.79 cm**-1
   9:       101.48 cm**-1
  10:       126.20 cm**-1
  11:       203.55 cm**-1
  12:       234.13 cm**-1
  13:       260.57 cm**-1
  14:       316.53 cm**-1
  15:       406.17 cm**-1
  16:       467.57 cm**-1
  17:       479.97 cm**-1
  18:       499.02 cm**-1
  19:       526.44 cm**-1
  20:       580.08 cm**-1
  21:       640.48 cm**-1
  22:       689.60 cm**-1
  23:       745.69 cm**-1
  24:       801.79 cm**-1
  25:       873.13 cm**-1
  26:       917.80 cm**-1
  27:       950.78 cm**-1
  28:       980.35 cm**-1
  29:      1026.26 cm**-1
  30:      1113.89 cm**-1
  31:      1125.07 cm**-1
  32:      1156.73 cm**-1
  33:      1172.53 cm**-1
  34:      1204.88 cm**-1
  35:      1238.09 cm**-1
  36:      1263.70 cm**-1
  37:      1285.94 cm**-1
  38:      1327.29 cm**-1
  39:      1341.77 cm**-1
  40:      1376.07 cm**-1
  41:      1413.97 cm**-1
  42:      1422.09 cm**-1
  43:      1443.51 cm**-1
  44:      1456.03 cm**-1
  45:      1650.83 cm**-1
  46:      1923.44 cm**-1
  47:      1925.00 cm**-1
  48:      3025.90 cm**-1
  49:      3047.46 cm**-1
  50:      3071.85 cm**-1
  51:      3106.05 cm**-1
  52:      3126.23 cm**-1
  53:      3530.69 cm**-1
  54:      3609.57 cm**-1
  55:      3858.78 cm**-1
  56:      3865.42 cm**-1

IR SPECTRUM
-----------

 Mode    freq (cm**-1)   T**2         TX         TY         TZ
-------------------------------------------------------------------
   6:        17.36   11.931513  (  1.374326  -2.914908  -1.243403)
   7:        47.11   10.892120  ( -2.815358   1.578143   0.689453)
   8:        69.79    2.228005  (  0.468992  -0.452635   1.342823)
   9:       101.48    5.568119  (  1.401482   1.047246  -1.583428)
  10:       126.20    2.560232  (  0.940141   1.053106  -0.753217)
  11:       203.55   47.247098  (  6.044866  -3.265660  -0.205320)
  12:       234.13    6.526998  (  0.712014   2.230496   1.022215)
  13:       260.57    1.681687  (  0.907767   0.582711  -0.719788)
  14:       316.53   26.312798  (  0.810934  -0.663588  -5.021438)
  15:       406.17   25.501994  (  4.756786  -1.052399   1.329449)
  16:       467.57   16.699960  ( -3.914135   0.566646  -1.028795)
  17:       479.97  121.809321  (  3.120055  -9.790861  -4.026614)
  18:       499.02   26.881860  ( -4.890880   1.587027   0.665207)
  19:       526.44    6.861174  ( -2.565168   0.431076   0.308640)
  20:       580.08   12.739982  ( -0.293940   3.204227   1.544834)
  21:       640.48   19.897435  (  4.172963   1.342475   0.825576)
  22:       689.60    6.374528  ( -0.352308  -2.499122  -0.069271)
  23:       745.69    1.769577  (  0.701553   0.096130   1.126126)
  24:       801.79    7.410390  ( -0.217189  -2.269315  -1.487760)
  25:       873.13   15.805913  ( -0.760505  -0.379363   3.883765)
  26:       917.80   98.324597  ( -0.177187  -2.338196   9.634627)
  27:       950.78   10.833845  ( -0.563432  -0.939071   3.103955)
  28:       980.35   69.199143  ( -0.026578  -1.766205  -8.128896)
  29:      1026.26    6.178476  (  0.601586   0.308869   2.391897)
  30:      1113.89    3.403077  (  1.025154   0.057122  -1.532603)
  31:      1125.07    4.924049  (  1.687350  -0.207502  -1.426128)
  32:      1156.73    0.409495  ( -0.410392  -0.482041  -0.093329)
  33:      1172.53    2.034012  (  0.178886  -1.348268   0.429168)
  34:      1204.88   13.368376  ( -2.113719  -1.276356  -2.696569)
  35:      1238.09   91.497804  ( -0.880203  -0.861607   9.485815)
  36:      1263.70   32.177779  ( -1.985447  -4.123690  -3.351262)
  37:      1285.94   53.248889  (  5.073688   4.659933  -2.406576)
  38:      1327.29   79.031079  (  1.405057   1.230623  -8.691517)
  39:      1341.77  419.609831  ( -6.127694  -1.498681  19.488847)
  40:      1376.07   90.346283  (  5.861836   6.537293   3.639912)
  41:      1413.97  101.368212  ( -5.849099  -1.611934   8.034794)
  42:      1422.09   97.885302  (  7.793439   3.915843  -4.670524)
  43:      1443.51    7.693984  ( -1.051443   1.262380  -2.234915)
  44:      1456.03   19.564957  ( -4.164494  -0.602666  -1.363357)
  45:      1650.83   25.722377  (  3.035564   3.946465   0.965994)
  46:      1923.44  296.450374  (-13.768031  -7.529765  -7.084796)
  47:      1925.00  224.546075  ( -2.098553  11.997806  -8.728963)
  48:      3025.90   17.219534  ( -1.370602   3.556847   1.640069)
  49:      3047.46   11.930290  ( -1.332791  -2.782887   1.552255)
  50:      3071.85   11.744283  (  0.612055  -1.496836   3.021449)
  51:      3106.05    2.602869  (  1.465553   0.651182   0.176023)
  52:      3126.23   14.828666  ( -1.215859   2.275845   2.858476)
  53:      3530.69    8.512722  ( -1.574215  -2.456471  -0.017876)
  54:      3609.57   10.531600  ( -2.458973   2.065780  -0.466480)
  55:      3858.78   57.802961  (  4.435569   6.135859   0.692761)
  56:      3865.42   64.741328  (  3.357495  -3.033274   6.653406)

--------------------------
THERMOCHEMISTRY AT 298.15K
--------------------------

Temperature         ... 298.15 K
Pressure            ... 1.00 atm
Total Mass          ... 147.13 AMU

Throughout the following assumptions are being made:
  (1) The electronic state is orbitally nondegenerate
  (2) There are no thermally accessible electronically excited states
  (3) Hindered rotations indicated by low frequency modes are not
      treated as such but are treated as vibrations and this may
      cause some error
  (4) All equations used are the standard statistical mechanics
      equations for an ideal gas
  (5) All vibrations are strictly harmonic

freq.      17.36  E(vib)   ...       0.57
freq.      47.11  E(vib)   ...       0.53
freq.      69.79  E(vib)   ...       0.50
freq.     101.48  E(vib)   ...       0.46
freq.     126.20  E(vib)   ...       0.43
freq.     203.55  E(vib)   ...       0.35
freq.     234.13  E(vib)   ...       0.32
freq.     260.57  E(vib)   ...       0.30
freq.     316.53  E(vib)   ...       0.25
freq.     406.17  E(vib)   ...       0.19
freq.     467.57  E(vib)   ...       0.16
freq.     479.97  E(vib)   ...       0.15
freq.     499.02  E(vib)   ...       0.14
freq.     526.44  E(vib)   ...       0.13
freq.     580.08  E(vib)   ...       0.11
freq.     640.48  E(vib)   ...       0.09
freq.     689.60  E(vib)   ...       0.07
freq.     745.69  E(vib)   ...       0.06
freq.     801.79  E(vib)   ...       0.05
freq.     873.13  E(vib)   ...       0.04
freq.     917.80  E(vib)   ...       0.03
freq.     950.78  E(vib)   ...       0.03
freq.     980.35  E(vib)   ...       0.02
freq.    1026.26  E(vib)   ...       0.02
freq.    1113.89  E(vib)   ...       0.01
freq.    1125.07  E(vib)   ...       0.01
freq.    1156.73  E(vib)   ...       0.01
freq.    1172.53  E(vib)   ...       0.01
freq.    1204.88  E(vib)   ...       0.01
freq.    1238.09  E(vib)   ...       0.01
freq.    1263.70  E(vib)   ...       0.01
freq.    1285.94  E(vib)   ...       0.01
freq.    1327.29  E(vib)   ...       0.01
freq.    1341.77  E(vib)   ...       0.01
freq.    1376.07  E(vib)   ...       0.01
freq.    1413.97  E(vib)   ...       0.00
freq.    1422.09  E(vib)   ...       0.00
freq.    1443.51  E(vib)   ...       0.00
freq.    1456.03  E(vib)   ...       0.00
freq.    1650.83  E(vib)   ...       0.00
freq.    1923.44  E(vib)   ...       0.00
freq.    1925.00  E(vib)   ...       0.00
freq.    3025.90  E(vib)   ...       0.00
freq.    3047.46  E(vib)   ...       0.00
freq.    3071.85  E(vib)   ...       0.00
freq.    3106.05  E(vib)   ...       0.00
freq.    3126.23  E(vib)   ...       0.00
freq.    3530.69  E(vib)   ...       0.00
freq.    3609.57  E(vib)   ...       0.00
freq.    3858.78  E(vib)   ...       0.00
freq.    3865.42  E(vib)   ...       0.00

------------
INNER ENERGY
------------

The inner energy is: U= E(el) + E(ZPE) + E(vib) + E(rot) + E(trans)
    E(el)   - is the total energy from the electronic structure calculation
              = E(kin-el) + E(nuc-el) + E(el-el) + E(nuc-nuc)
    E(ZPE)  - the the zero temperature vibrational energy from the frequency calculation
    E(vib)  - the the finite temperature correction to E(ZPE) due to population
              of excited vibrational states
    E(rot)  - is the rotational thermal energy
    E(trans)- is the translational thermal energy

Summary of contributions to the inner energy U:
Electronic energy                ...   -550.61371254 Eh
Zero point energy                ...      0.15273891 Eh      95.84 kcal/mol
Thermal vibrational correction   ...      0.00814288 Eh       5.11 kcal/mol
Thermal rotational correction    ...      0.00141627 Eh       0.89 kcal/mol
Thermal translational correction ...      0.00141627 Eh       0.89 kcal/mol
-----------------------------------------------------------------------
Total thermal energy                   -550.44999820 Eh

Summary of corrections to the electronic energy:
(perhaps to be used in another calculation)
Total thermal correction                  0.01097542 Eh       6.89 kcal/mol
Non-thermal (ZPE) correction              0.15273891 Eh      95.84 kcal/mol
-----------------------------------------------------------------------
Total correction                          0.16371434 Eh     102.73 kcal/mol

--------
ENTHALPY
--------

The enthalpy is H = U + kB*T
                kB is Boltzmann's constant
Total free energy                 ...   -550.44999820 Eh
Thermal Enthalpy correction       ...      0.00094421 Eh       0.59 kcal/mol
-----------------------------------------------------------------------
Total Enthalpy                    ...   -550.44905399 Eh

Vibrational entropy computed according to the QRRHO of S. Grimme
Chem.Eur.J. 2012 18 9955

check

-------
ENTROPY
-------

The entropy contributions are T*S = T*(S(el)+S(vib)+S(rot)+S(trans)
     S(el)   - electronic entropy
     S(vib)  - vibrational entropy
     S(rot)  - rotational entropy
     S(trans)- translational entropy
The entropies will be listed as mutliplied by the temperature to get
units of energy

Electronic entropy                ...      0.00000000 Eh      0.00 kcal/mol
Vibrational entropy               ...      0.01474194 Eh      9.25 kcal/mol
Rotational entropy                ...      0.01336571 Eh      8.39 kcal/mol
Translational entropy             ...      0.01941813 Eh     12.19 kcal/mol
-----------------------------------------------------------------------
Final entropy term                ...      0.04752578 Eh     29.82 kcal/mol

CAUTION: The rotational entropy is not quite correctly treated here
         because it includes a symmetry number that is not yet correctly
         implemented in ORCA!
For a nonlinear molecule the correct rotational entropy is:
    S(rot) = R*(ln(qrot/sn)+1.5)
    R    = 8.31441 J/mol/K = 1.987191683e-3 kcal/mol/K
    qrot = 940803.8973090
    sn is the rotational symmetry number. We have assumed 3 here
       if it is different for your molecule then you should correct
       the printed rotational entropy by manually evaluating the equation
       as given above

For convenience we print out the resulting values for sn=1 - 12:
 sn= 1  qrot/sn=  940803.8973 T*S(rot)=     9.04 kcal/mol T*S(tot)=    30.47 kcal/mol
 sn= 2  qrot/sn=  470401.9487 T*S(rot)=     8.63 kcal/mol T*S(tot)=    30.06 kcal/mol
 sn= 3  qrot/sn=  313601.2991 T*S(rot)=     8.39 kcal/mol T*S(tot)=    29.82 kcal/mol
 sn= 4  qrot/sn=  235200.9743 T*S(rot)=     8.22 kcal/mol T*S(tot)=    29.65 kcal/mol
 sn= 5  qrot/sn=  188160.7795 T*S(rot)=     8.08 kcal/mol T*S(tot)=    29.52 kcal/mol
 sn= 6  qrot/sn=  156800.6496 T*S(rot)=     7.98 kcal/mol T*S(tot)=    29.41 kcal/mol
 sn= 7  qrot/sn=  134400.5568 T*S(rot)=     7.89 kcal/mol T*S(tot)=    29.32 kcal/mol
 sn= 8  qrot/sn=  117600.4872 T*S(rot)=     7.81 kcal/mol T*S(tot)=    29.24 kcal/mol
 sn= 9  qrot/sn=  104533.7664 T*S(rot)=     7.74 kcal/mol T*S(tot)=    29.17 kcal/mol
 sn=10  qrot/sn=   94080.3897 T*S(rot)=     7.67 kcal/mol T*S(tot)=    29.11 kcal/mol
 sn=11  qrot/sn=   85527.6270 T*S(rot)=     7.62 kcal/mol T*S(tot)=    29.05 kcal/mol

                             ****ORCA TERMINATED NORMALLY****
TOTAL RUN TIME: 0 days 1 hours 10 minutes 0 seconds 322 msec
