                         Program Version 4.0.0 -  RELEASE  -
|  1> ! PBE0
|  2> ! opt anfreq
|  3> * xyzfile 0 1 phenyl.xyz **                         ****END OF INPUT****
 Total Charge           Charge          ....    0
 Multiplicity           Mult            ....    1
 Number of Electrons    NEL             ....   88
FINAL SINGLE POINT ENERGY      -553.745511265540
FINAL SINGLE POINT ENERGY      -553.755974092725
FINAL SINGLE POINT ENERGY      -553.758979541783
FINAL SINGLE POINT ENERGY      -553.760129908453
FINAL SINGLE POINT ENERGY      -553.760995430885
FINAL SINGLE POINT ENERGY      -553.761679189064
FINAL SINGLE POINT ENERGY      -553.762264320094
FINAL SINGLE POINT ENERGY      -553.762794627657
FINAL SINGLE POINT ENERGY      -553.763169373725
FINAL SINGLE POINT ENERGY      -553.763376560793
FINAL SINGLE POINT ENERGY      -553.763426565412
FINAL SINGLE POINT ENERGY      -553.763447819504
FINAL SINGLE POINT ENERGY      -553.763456309446
FINAL SINGLE POINT ENERGY      -553.763461614124
FINAL SINGLE POINT ENERGY      -553.763464518160
                    ***********************HURRAY********************

CARTESIAN COORDINATES (ANGSTROEM)
---------------------------------
  C     -1.516722   -0.003529    0.238285
  C     -0.814150    0.904724   -0.550776
  C      0.580474    0.874668   -0.580576
  C      1.298776   -0.060709    0.177284
  C      0.575650   -0.968219    0.967758
  C     -0.816711   -0.941327    0.998415
  C      2.805566   -0.101353    0.150917
  C      3.432438   -1.360169   -0.481284
  C      3.204547   -1.434667   -1.999835
  O      4.107982   -1.549251   -2.780516
  O      1.935356   -1.395530   -2.420742
  N      4.827201   -1.437678   -0.127264
  H     -2.609324    0.018776    0.262642
  H     -1.353052    1.643727   -1.148784
  H      1.124715    1.589528   -1.204423
  H      1.114552   -1.700203    1.577321
  H     -1.359553   -1.654563    1.623781
  H      3.197865   -0.063645    1.179014
  H      3.193489    0.791861   -0.366256
  H      2.918039   -2.240126   -0.049172
  H      1.331496   -1.222553   -1.681615
  H      5.319990   -0.662278   -0.571511
  H      5.232006   -2.266735   -0.559553

 Multiplicity           Mult            ....    1
 Number of Electrons    NEL             ....   88
 Basis Dimension        Dim             ....  223

ORBITAL ENERGIES
----------------

  NO   OCC          E(Eh)            E(eV)
   0   2.0000     -19.250410      -523.8303
   1   2.0000     -19.190506      -522.2002
   2   2.0000     -14.377117      -391.2212
   3   2.0000     -10.352661      -281.7102
   4   2.0000     -10.284158      -279.8462
   5   2.0000     -10.268848      -279.4296
   6   2.0000     -10.259419      -279.1730
   7   2.0000     -10.258954      -279.1603
   8   2.0000     -10.258603      -279.1508
   9   2.0000     -10.258099      -279.1371
  10   2.0000     -10.257943      -279.1328
  11   2.0000     -10.257047      -279.1084
  12   2.0000      -1.119689       -30.4683
  13   2.0000      -1.034208       -28.1422
  14   2.0000      -0.921437       -25.0736
  15   2.0000      -0.897125       -24.4120
  16   2.0000      -0.815852       -22.2005
  17   2.0000      -0.780736       -21.2449
  18   2.0000      -0.747379       -20.3372
  19   2.0000      -0.677546       -18.4370
  20   2.0000      -0.639475       -17.4010
  21   2.0000      -0.627929       -17.0868
  22   2.0000      -0.617286       -16.7972
  23   2.0000      -0.555128       -15.1058
  24   2.0000      -0.549141       -14.9429
  25   2.0000      -0.511512       -13.9189
  26   2.0000      -0.496063       -13.4986
  27   2.0000      -0.479916       -13.0592
  28   2.0000      -0.475647       -12.9430
  29   2.0000      -0.458939       -12.4884
  30   2.0000      -0.451632       -12.2895
  31   2.0000      -0.444885       -12.1059
  32   2.0000      -0.427448       -11.6315
  33   2.0000      -0.424056       -11.5392
  34   2.0000      -0.411199       -11.1893
  35   2.0000      -0.388477       -10.5710
  36   2.0000      -0.380093       -10.3429
  37   2.0000      -0.371321       -10.1042
  38   2.0000      -0.364251        -9.9118
  39   2.0000      -0.331062        -9.0086
  40   2.0000      -0.290046        -7.8926
  41   2.0000      -0.286302        -7.7907
  42   2.0000      -0.281115        -7.6495
  43   2.0000      -0.260983        -7.1017
  44   0.0000      -0.029534        -0.8036
  45   0.0000      -0.024240        -0.6596
  46   0.0000       0.018487         0.5031
  47   0.0000       0.060820         1.6550
  48   0.0000       0.075492         2.0542

MULLIKEN ATOMIC CHARGES
-----------------------
   0 C :   -0.026142
   1 C :   -0.003815
   2 C :   -0.029014
   3 C :   -0.202683
   4 C :   -0.020559
   5 C :   -0.004570
   6 C :    0.108711
   7 C :   -0.145923
   8 C :    0.196958
   9 O :   -0.227764
  10 O :   -0.183085
  11 N :   -0.203324
  12 H :    0.035747
  13 H :    0.030818
  14 H :    0.025888
  15 H :    0.025736
  16 H :    0.029560
  17 H :    0.068324
  18 H :    0.034126
  19 H :    0.061178
  20 H :    0.203450
  21 H :    0.111429
  22 H :    0.114953
Sum of atomic charges:   -0.0000000

LOEWDIN ATOMIC CHARGES
----------------------
   0 C :   -0.030480
   1 C :   -0.025032
   2 C :   -0.034622
   3 C :   -0.058983
   4 C :   -0.035070
   5 C :   -0.025233
   6 C :   -0.030461
   7 C :   -0.042506
   8 C :    0.059272
   9 O :   -0.172246
  10 O :   -0.025866
  11 N :   -0.096789
  12 H :    0.038547
  13 H :    0.039043
  14 H :    0.037073
  15 H :    0.035766
  16 H :    0.038274
  17 H :    0.049656
  18 H :    0.035015
  19 H :    0.036648
  20 H :    0.082879
  21 H :    0.061090
  22 H :    0.064025

  Mayer bond orders larger than 0.1
B(  0-C ,  1-C ) :   1.3995 B(  0-C ,  5-C ) :   1.3818 B(  0-C , 12-H ) :   0.9847
B(  1-C ,  2-C ) :   1.3871 B(  1-C , 13-H ) :   0.9840 B(  2-C ,  3-C ) :   1.3823
B(  2-C , 14-H ) :   0.9865 B(  3-C ,  4-C ) :   1.3639 B(  3-C ,  6-C ) :   1.0250
B(  4-C ,  5-C ) :   1.4082 B(  4-C , 15-H ) :   0.9866 B(  5-C , 16-H ) :   0.9845
B(  6-C ,  7-C ) :   1.0298 B(  6-C , 17-H ) :   0.9199 B(  6-C , 18-H ) :   0.9282
B(  7-C ,  8-C ) :   0.8741 B(  7-C , 11-N ) :   1.1248 B(  7-C , 19-H ) :   0.9124
B(  8-C ,  9-O ) :   2.1392 B(  8-C , 10-O ) :   1.2033 B( 10-O , 20-H ) :   0.9382
B( 11-N , 21-H ) :   0.9661 B( 11-N , 22-H ) :   0.9598

FINAL SINGLE POINT ENERGY      -553.763465903547

DIPOLE MOMENT
-------------
                                X             Y             Z
Electronic contribution:     -0.04455      -1.10554      -4.17974
Nuclear contribution   :     -0.92485       1.44570       5.24220
                        -----------------------------------------
Total Dipole Moment    :     -0.96939       0.34016       1.06246
                        -----------------------------------------
Magnitude (a.u.)       :      1.47792
Magnitude (Debye)      :      3.75658

VIBRATIONAL FREQUENCIES
-----------------------

   0:         0.00 cm**-1
   1:         0.00 cm**-1
   2:         0.00 cm**-1
   3:         0.00 cm**-1
   4:         0.00 cm**-1
   5:         0.00 cm**-1
   6:        35.20 cm**-1
   7:        40.56 cm**-1
   8:        77.81 cm**-1
   9:       101.56 cm**-1
  10:       194.10 cm**-1
  11:       215.21 cm**-1
  12:       290.08 cm**-1
  13:       316.72 cm**-1
  14:       330.69 cm**-1
  15:       358.13 cm**-1
  16:       417.81 cm**-1
  17:       493.93 cm**-1
  18:       504.07 cm**-1
  19:       551.06 cm**-1
  20:       608.92 cm**-1
  21:       631.52 cm**-1
  22:       652.47 cm**-1
  23:       725.29 cm**-1
  24:       743.02 cm**-1
  25:       770.18 cm**-1
  26:       827.98 cm**-1
  27:       845.00 cm**-1
  28:       871.32 cm**-1
  29:       924.72 cm**-1
  30:       947.22 cm**-1
  31:       990.99 cm**-1
  32:      1007.64 cm**-1
  33:      1016.73 cm**-1
  34:      1029.19 cm**-1
  35:      1034.40 cm**-1
  36:      1060.73 cm**-1
  37:      1100.70 cm**-1
  38:      1150.92 cm**-1
  39:      1170.97 cm**-1
  40:      1191.78 cm**-1
  41:      1195.06 cm**-1
  42:      1213.37 cm**-1
  43:      1220.86 cm**-1
  44:      1244.27 cm**-1
  45:      1297.79 cm**-1
  46:      1330.19 cm**-1
  47:      1358.22 cm**-1
  48:      1377.18 cm**-1
  49:      1397.46 cm**-1
  50:      1411.33 cm**-1
  51:      1462.62 cm**-1
  52:      1490.25 cm**-1
  53:      1536.43 cm**-1
  54:      1654.65 cm**-1
  55:      1663.43 cm**-1
  56:      1688.71 cm**-1
  57:      1911.48 cm**-1
  58:      3037.62 cm**-1
  59:      3069.43 cm**-1
  60:      3130.32 cm**-1
  61:      3192.23 cm**-1
  62:      3199.39 cm**-1
  63:      3208.29 cm**-1
  64:      3219.02 cm**-1
  65:      3227.74 cm**-1
  66:      3532.39 cm**-1
  67:      3605.21 cm**-1
  68:      3756.80 cm**-1

IR SPECTRUM
-----------

 Mode    freq (cm**-1)   T**2         TX         TY         TZ
-------------------------------------------------------------------
   6:        35.20    0.329665  ( -0.417229   0.373595  -0.126538)
   7:        40.56    8.092364  ( -0.505470   2.796534   0.127528)
   8:        77.81    2.560692  (  0.018253  -1.577090  -0.270456)
   9:       101.56    3.484645  ( -0.435599   1.779640   0.357461)
  10:       194.10   30.439802  (  0.198368  -5.464212   0.736776)
  11:       215.21    8.652147  (  0.172936   2.643800   1.277717)
  12:       290.08    4.900064  ( -1.817539  -0.150579  -1.254568)
  13:       316.72   15.376618  (  2.824547   1.414698   2.323183)
  14:       330.69   12.162784  ( -2.089522   2.782162  -0.237187)
  15:       358.13   11.388333  (  1.490549  -2.963800   0.618457)
  16:       417.81    0.017908  (  0.064626  -0.114845  -0.023285)
  17:       493.93    9.265573  (  1.916696  -2.339962  -0.341215)
  18:       504.07   17.917804  (  0.398913  -3.529998  -2.301692)
  19:       551.06   61.832014  (  1.632883  -7.530571  -1.567228)
  20:       608.92    5.271441  ( -2.080570   0.934593   0.263067)
  21:       631.52    0.465508  (  0.278348  -0.618340   0.075404)
  22:       652.47   25.625441  ( -2.921750   2.958691   2.887035)
  23:       725.29   37.718552  ( -0.314799   3.910176   4.725460)
  24:       743.02    2.520614  (  0.559875   0.744019   1.285920)
  25:       770.18   15.469985  ( -1.039267  -2.613246  -2.749701)
  26:       827.98    8.490970  ( -0.142490   0.004436   2.910438)
  27:       845.00    0.287641  (  0.035676   0.498626  -0.194267)
  28:       871.32    0.137877  ( -0.119093   0.349961   0.034952)
  29:       924.72  114.992170  (  7.174798  -0.634381   7.944306)
  30:       947.22   14.829740  ( -3.178720   0.697029  -2.059036)
  31:       990.99   23.883356  (  3.760938   0.164249   3.116364)
  32:      1007.64    0.035089  ( -0.090675   0.134286   0.093991)
  33:      1016.73    0.628200  (  0.720917  -0.183594  -0.273444)
  34:      1029.19    7.460936  (  2.207489   0.112518   1.604764)
  35:      1034.40   29.719911  ( -4.074939  -0.587044  -3.573536)
  36:      1060.73    3.315775  ( -1.791833   0.112280   0.304141)
  37:      1100.70    8.918871  ( -0.373008   1.617754  -2.482460)
  38:      1150.92    3.453968  ( -0.940488   1.533122   0.467961)
  39:      1170.97    0.079395  ( -0.280492  -0.014451   0.022594)
  40:      1191.78    2.754242  ( -1.529071   0.644874  -0.017907)
  41:      1195.06   20.045911  ( -4.305531   1.053703  -0.630890)
  42:      1213.37    2.288845  (  0.062594   0.023793  -1.511410)
  43:      1220.86    4.102946  ( -1.776752   0.950777  -0.205235)
  44:      1244.27    4.603930  ( -1.894308  -0.274508  -0.969625)
  45:      1297.79   96.723306  ( -8.438637  -0.197120  -5.047163)
  46:      1330.19    9.620433  ( -2.283548   0.580810  -2.017052)
  47:      1358.22    0.777324  ( -0.688782  -0.546976  -0.060995)
  48:      1377.18  103.269717  ( -9.043202  -1.449007  -4.403476)
  49:      1397.46    0.433848  ( -0.515291   0.070098  -0.404240)
  50:      1411.33   42.880075  ( -5.088996  -0.598563  -4.077244)
  51:      1462.62    8.226371  ( -1.566114  -1.790815  -1.602073)
  52:      1490.25    8.953117  (  0.682792   2.488725  -1.514319)
  53:      1536.43   16.151779  (  4.014374  -0.066551   0.179313)
  54:      1654.65   21.265716  (  3.850818   0.040741  -2.536781)
  55:      1663.43    3.063259  ( -0.617150  -0.833035   1.410120)
  56:      1688.71    3.129924  ( -1.743779   0.298596  -0.001009)
  57:      1911.48  376.917302  ( 15.222268  -3.005880 -11.668957)
  58:      3037.62   10.290010  (  2.596594   1.831909  -0.437971)
  59:      3069.43   15.672509  ( -2.628126  -2.933911  -0.397025)
  60:      3130.32    4.699108  ( -1.023822  -1.147169   1.528038)
  61:      3192.23    3.135429  ( -1.588156   0.690496  -0.369331)
  62:      3199.39    1.314506  (  0.864961   0.584133  -0.474486)
  63:      3208.29    2.189171  (  1.461507  -0.122947   0.195071)
  64:      3219.02    8.939098  (  0.462534   2.271289  -1.888493)
  65:      3227.74    5.381014  (  2.283431  -0.402444  -0.070683)
  66:      3532.39    5.267632  (  1.669935  -0.293156  -1.546936)
  67:      3605.21    8.051663  ( -0.352883   2.788792   0.387008)
  68:      3756.80  320.163221  (-13.033119   5.897852  10.747854)

--------------------------
THERMOCHEMISTRY AT 298.15K
--------------------------

Temperature         ... 298.15 K
Pressure            ... 1.00 atm
Total Mass          ... 165.19 AMU

Throughout the following assumptions are being made:
  (1) The electronic state is orbitally nondegenerate
  (2) There are no thermally accessible electronically excited states
  (3) Hindered rotations indicated by low frequency modes are not
      treated as such but are treated as vibrations and this may
      cause some error
  (4) All equations used are the standard statistical mechanics
      equations for an ideal gas
  (5) All vibrations are strictly harmonic

freq.      35.20  E(vib)   ...       0.54
freq.      40.56  E(vib)   ...       0.54
freq.      77.81  E(vib)   ...       0.49
freq.     101.56  E(vib)   ...       0.46
freq.     194.10  E(vib)   ...       0.36
freq.     215.21  E(vib)   ...       0.34
freq.     290.08  E(vib)   ...       0.27
freq.     316.72  E(vib)   ...       0.25
freq.     330.69  E(vib)   ...       0.24
freq.     358.13  E(vib)   ...       0.22
freq.     417.81  E(vib)   ...       0.18
freq.     493.93  E(vib)   ...       0.14
freq.     504.07  E(vib)   ...       0.14
freq.     551.06  E(vib)   ...       0.12
freq.     608.92  E(vib)   ...       0.10
freq.     631.52  E(vib)   ...       0.09
freq.     652.47  E(vib)   ...       0.08
freq.     725.29  E(vib)   ...       0.06
freq.     743.02  E(vib)   ...       0.06
freq.     770.18  E(vib)   ...       0.05
freq.     827.98  E(vib)   ...       0.04
freq.     845.00  E(vib)   ...       0.04
freq.     871.32  E(vib)   ...       0.04
freq.     924.72  E(vib)   ...       0.03
freq.     947.22  E(vib)   ...       0.03
freq.     990.99  E(vib)   ...       0.02
freq.    1007.64  E(vib)   ...       0.02
freq.    1016.73  E(vib)   ...       0.02
freq.    1029.19  E(vib)   ...       0.02
freq.    1034.40  E(vib)   ...       0.02
freq.    1060.73  E(vib)   ...       0.02
freq.    1100.70  E(vib)   ...       0.02
freq.    1150.92  E(vib)   ...       0.01
freq.    1170.97  E(vib)   ...       0.01
freq.    1191.78  E(vib)   ...       0.01
freq.    1195.06  E(vib)   ...       0.01
freq.    1213.37  E(vib)   ...       0.01
freq.    1220.86  E(vib)   ...       0.01
freq.    1244.27  E(vib)   ...       0.01
freq.    1297.79  E(vib)   ...       0.01
freq.    1330.19  E(vib)   ...       0.01
freq.    1358.22  E(vib)   ...       0.01
freq.    1377.18  E(vib)   ...       0.01
freq.    1397.46  E(vib)   ...       0.00
freq.    1411.33  E(vib)   ...       0.00
freq.    1462.62  E(vib)   ...       0.00
freq.    1490.25  E(vib)   ...       0.00
freq.    1536.43  E(vib)   ...       0.00
freq.    1654.65  E(vib)   ...       0.00
freq.    1663.43  E(vib)   ...       0.00
freq.    1688.71  E(vib)   ...       0.00
freq.    1911.48  E(vib)   ...       0.00
freq.    3037.62  E(vib)   ...       0.00
freq.    3069.43  E(vib)   ...       0.00
freq.    3130.32  E(vib)   ...       0.00
freq.    3192.23  E(vib)   ...       0.00
freq.    3199.39  E(vib)   ...       0.00
freq.    3208.29  E(vib)   ...       0.00
freq.    3219.02  E(vib)   ...       0.00
freq.    3227.74  E(vib)   ...       0.00
freq.    3532.39  E(vib)   ...       0.00
freq.    3605.21  E(vib)   ...       0.00
freq.    3756.80  E(vib)   ...       0.00

------------
INNER ENERGY
------------

The inner energy is: U= E(el) + E(ZPE) + E(vib) + E(rot) + E(trans)
    E(el)   - is the total energy from the electronic structure calculation
              = E(kin-el) + E(nuc-el) + E(el-el) + E(nuc-nuc)
    E(ZPE)  - the the zero temperature vibrational energy from the frequency calculation
    E(vib)  - the the finite temperature correction to E(ZPE) due to population
              of excited vibrational states
    E(rot)  - is the rotational thermal energy
    E(trans)- is the translational thermal energy

Summary of contributions to the inner energy U:
Electronic energy                ...   -553.76346590 Eh
Zero point energy                ...      0.19104807 Eh     119.88 kcal/mol
Thermal vibrational correction   ...      0.00827021 Eh       5.19 kcal/mol
Thermal rotational correction    ...      0.00141627 Eh       0.89 kcal/mol
Thermal translational correction ...      0.00141627 Eh       0.89 kcal/mol
-----------------------------------------------------------------------
Total thermal energy                   -553.56131508 Eh

Summary of corrections to the electronic energy:
(perhaps to be used in another calculation)
Total thermal correction                  0.01110275 Eh       6.97 kcal/mol
Non-thermal (ZPE) correction              0.19104807 Eh     119.88 kcal/mol
-----------------------------------------------------------------------
Total correction                          0.20215083 Eh     126.85 kcal/mol

--------
ENTHALPY
--------

The enthalpy is H = U + kB*T
                kB is Boltzmann's constant
Total free energy                 ...   -553.56131508 Eh
Thermal Enthalpy correction       ...      0.00094421 Eh       0.59 kcal/mol
-----------------------------------------------------------------------
Total Enthalpy                    ...   -553.56037087 Eh

Vibrational entropy computed according to the QRRHO of S. Grimme
Chem.Eur.J. 2012 18 9955

check

-------
ENTROPY
-------

The entropy contributions are T*S = T*(S(el)+S(vib)+S(rot)+S(trans)
     S(el)   - electronic entropy
     S(vib)  - vibrational entropy
     S(rot)  - rotational entropy
     S(trans)- translational entropy
The entropies will be listed as mutliplied by the temperature to get
units of energy

Electronic entropy                ...      0.00000000 Eh      0.00 kcal/mol
Vibrational entropy               ...      0.01431284 Eh      8.98 kcal/mol
Rotational entropy                ...      0.01356718 Eh      8.51 kcal/mol
Translational entropy             ...      0.01958212 Eh     12.29 kcal/mol
-----------------------------------------------------------------------
Final entropy term                ...      0.04746215 Eh     29.78 kcal/mol

CAUTION: The rotational entropy is not quite correctly treated here
         because it includes a symmetry number that is not yet correctly
         implemented in ORCA!
For a nonlinear molecule the correct rotational entropy is:
    S(rot) = R*(ln(qrot/sn)+1.5)
    R    = 8.31441 J/mol/K = 1.987191683e-3 kcal/mol/K
    qrot = 1164580.8781908
    sn is the rotational symmetry number. We have assumed 3 here
       if it is different for your molecule then you should correct
       the printed rotational entropy by manually evaluating the equation
       as given above

                             ****ORCA TERMINATED NORMALLY****
TOTAL RUN TIME: 0 days 2 hours 37 minutes 36 seconds 730 msec
