                         Program Version 4.0.0 -  RELEASE  -
|  1> ! PBE0
|  2> ! opt anfreq
|  3> * xyzfile 0 1 tyrosine.xyz **                         ****END OF INPUT****
 Total Charge           Charge          ....    0
 Multiplicity           Mult            ....    1
 Number of Electrons    NEL             ....   96
FINAL SINGLE POINT ENERGY      -628.832446250725
FINAL SINGLE POINT ENERGY      -628.846010098484
FINAL SINGLE POINT ENERGY      -628.850654489571
FINAL SINGLE POINT ENERGY      -628.852159174044
FINAL SINGLE POINT ENERGY      -628.853139912859
FINAL SINGLE POINT ENERGY      -628.853874407983
FINAL SINGLE POINT ENERGY      -628.854498344654
FINAL SINGLE POINT ENERGY      -628.854990141843
FINAL SINGLE POINT ENERGY      -628.855370923445
FINAL SINGLE POINT ENERGY      -628.855594378910
FINAL SINGLE POINT ENERGY      -628.855644943275
FINAL SINGLE POINT ENERGY      -628.855670030940
FINAL SINGLE POINT ENERGY      -628.855679122929
FINAL SINGLE POINT ENERGY      -628.855685058765
FINAL SINGLE POINT ENERGY      -628.855687949357
                    ***********************HURRAY********************

CARTESIAN COORDINATES (ANGSTROEM)
---------------------------------
  C     -0.524224    1.040987    0.856892
  C      0.867142    1.020545    0.846892
  C      1.551954    0.058896    0.094375
  C      0.819556   -0.874505   -0.645961
  C     -0.570498   -0.839976   -0.628314
  C     -1.276693    0.114709    0.120062
  C     -2.784370    0.141231    0.150398
  C     -3.451844    1.388992   -0.460080
  C     -3.277585    1.473413   -1.984761
  O     -4.205245    1.623561   -2.730693
  O     -2.025552    1.406580   -2.449642
  N     -4.834402    1.448587   -0.056913
  O      2.895719   -0.011219    0.048206
  H     -1.036227    1.793650    1.464288
  H      1.428638    1.754798    1.433345
  H      1.360132   -1.621705   -1.230110
  H     -1.126156   -1.577678   -1.214437
  H     -3.140582    0.097769    1.191562
  H     -3.179448   -0.758074   -0.350985
  H     -2.934870    2.277069   -0.047177
  H     -1.404916    1.205141   -1.730388
  H     -5.325935    0.649891   -0.459376
  H     -5.271148    2.255156   -0.500869
  H      3.275145    0.685093    0.595065

 Multiplicity           Mult            ....    1
 Number of Electrons    NEL             ....   96
 Basis Dimension        Dim             ....  237

ORBITAL ENERGIES
----------------

  NO   OCC          E(Eh)            E(eV)
   0   2.0000     -19.258875      -524.0606
   1   2.0000     -19.247206      -523.7431
   2   2.0000     -19.187987      -522.1317
   3   2.0000     -14.374900      -391.1609
   4   2.0000     -10.349994      -281.6376
   5   2.0000     -10.316642      -280.7301
   6   2.0000     -10.281011      -279.7605
   7   2.0000     -10.262757      -279.2638
   8   2.0000     -10.261478      -279.2290
   9   2.0000     -10.260147      -279.1928
  10   2.0000     -10.258420      -279.1458
  11   2.0000     -10.255792      -279.0743
  12   2.0000     -10.251157      -278.9482
  13   2.0000      -1.116895       -30.3923
  14   2.0000      -1.102905       -30.0116
  15   2.0000      -1.031477       -28.0679
  16   2.0000      -0.918918       -25.0050
  17   2.0000      -0.894405       -24.3380
  18   2.0000      -0.810366       -22.0512
  19   2.0000      -0.784807       -21.3557
  20   2.0000      -0.743655       -20.2359
  21   2.0000      -0.677036       -18.4231
  22   2.0000      -0.658887       -17.9292
  23   2.0000      -0.626068       -17.0362
  24   2.0000      -0.622063       -16.9272
  25   2.0000      -0.583132       -15.8678
  26   2.0000      -0.550125       -14.9697
  27   2.0000      -0.536145       -14.5892
  28   2.0000      -0.511173       -13.9097
  29   2.0000      -0.483120       -13.1464
  30   2.0000      -0.476095       -12.9552
  31   2.0000      -0.466063       -12.6822
  32   2.0000      -0.456344       -12.4178
  33   2.0000      -0.452324       -12.3084
  34   2.0000      -0.449946       -12.2437
  35   2.0000      -0.440982       -11.9997
  36   2.0000      -0.425643       -11.5823
  37   2.0000      -0.414151       -11.2696
  38   2.0000      -0.402917       -10.9639
  39   2.0000      -0.384024       -10.4498
  40   2.0000      -0.377817       -10.2809
  41   2.0000      -0.362077        -9.8526
  42   2.0000      -0.360542        -9.8109
  43   2.0000      -0.327988        -8.9250
  44   2.0000      -0.289779        -7.8853
  45   2.0000      -0.285667        -7.7734
  46   2.0000      -0.262581        -7.1452
  47   2.0000      -0.249334        -6.7847
  48   0.0000      -0.027623        -0.7517
  49   0.0000      -0.013418        -0.3651
  50   0.0000       0.020881         0.5682
  51   0.0000       0.047690         1.2977
  52   0.0000       0.067459         1.8356

MULLIKEN ATOMIC CHARGES
-----------------------
   0 C :   -0.022502
   1 C :   -0.064225
   2 C :    0.148564
   3 C :   -0.036078
   4 C :   -0.025147
   5 C :   -0.207570
   6 C :    0.111386
   7 C :   -0.143889
   8 C :    0.197171
   9 O :   -0.229528
  10 O :   -0.184623
  11 N :   -0.205264
  12 O :   -0.202607
  13 H :    0.026165
  14 H :    0.009449
  15 H :    0.028100
  16 H :    0.027174
  17 H :    0.065987
  18 H :    0.031492
  19 H :    0.060285
  20 H :    0.203952
  21 H :    0.110160
  22 H :    0.114883
  23 H :    0.186668
Sum of atomic charges:    0.0000000

LOEWDIN ATOMIC CHARGES
----------------------
   0 C :   -0.022653
   1 C :   -0.082121
   2 C :    0.047526
   3 C :   -0.053732
   4 C :   -0.021610
   5 C :   -0.085386
   6 C :   -0.030896
   7 C :   -0.043916
   8 C :    0.059086
   9 O :   -0.174018
  10 O :   -0.026969
  11 N :   -0.098077
  12 O :   -0.040435
  13 H :    0.037148
  14 H :    0.033749
  15 H :    0.043748
  16 H :    0.038979
  17 H :    0.047836
  18 H :    0.034437
  19 H :    0.036388
  20 H :    0.081241
  21 H :    0.060706
  22 H :    0.063504
  23 H :    0.095463

  Mayer bond orders larger than 0.1
B(  0-C ,  1-C ) :   1.4079 B(  0-C ,  5-C ) :   1.3638 B(  0-C , 13-H ) :   0.9823
B(  1-C ,  2-C ) :   1.3088 B(  1-C , 14-H ) :   0.9805 B(  2-C ,  3-C ) :   1.3483
B(  2-C , 12-O ) :   1.1935 B(  3-C ,  4-C ) :   1.3982 B(  3-C , 15-H ) :   0.9901
B(  4-C ,  5-C ) :   1.3579 B(  4-C , 16-H ) :   0.9851 B(  5-C ,  6-C ) :   1.0264
B(  6-C ,  7-C ) :   1.0300 B(  6-C , 17-H ) :   0.9212 B(  6-C , 18-H ) :   0.9277
B(  7-C ,  8-C ) :   0.8745 B(  7-C , 11-N ) :   1.1220 B(  7-C , 19-H ) :   0.9114
B(  8-C ,  9-O ) :   2.1372 B(  8-C , 10-O ) :   1.2055 B( 10-O , 20-H ) :   0.9371
B( 11-N , 21-H ) :   0.9669 B( 11-N , 22-H ) :   0.9588 B( 12-O , 23-H ) :   0.9614

FINAL SINGLE POINT ENERGY      -628.855689360432

DIPOLE MOMENT
-------------
                                X             Y             Z
Electronic contribution:      3.69227       0.34505      -3.67601
Nuclear contribution   :     -2.48422      -0.34243       5.05557
                        -----------------------------------------
Total Dipole Moment    :      1.20805       0.00261       1.37957
                        -----------------------------------------
Magnitude (a.u.)       :      1.83374
Magnitude (Debye)      :      4.66099

VIBRATIONAL FREQUENCIES
-----------------------

   0:         0.00 cm**-1
   1:         0.00 cm**-1
   2:         0.00 cm**-1
   3:         0.00 cm**-1
   4:         0.00 cm**-1
   5:         0.00 cm**-1
   6:        37.46 cm**-1
   7:        40.22 cm**-1
   8:        63.05 cm**-1
   9:        93.47 cm**-1
  10:       169.13 cm**-1
  11:       198.72 cm**-1
  12:       258.99 cm**-1
  13:       305.89 cm**-1
  14:       311.01 cm**-1
  15:       330.32 cm**-1
  16:       383.63 cm**-1
  17:       393.69 cm**-1
  18:       426.54 cm**-1
  19:       432.62 cm**-1
  20:       482.46 cm**-1
  21:       533.01 cm**-1
  22:       563.96 cm**-1
  23:       580.14 cm**-1
  24:       646.93 cm**-1
  25:       653.78 cm**-1
  26:       731.69 cm**-1
  27:       745.88 cm**-1
  28:       802.45 cm**-1
  29:       820.97 cm**-1
  30:       832.62 cm**-1
  31:       861.57 cm**-1
  32:       878.69 cm**-1
  33:       927.57 cm**-1
  34:       965.18 cm**-1
  35:       990.06 cm**-1
  36:       993.86 cm**-1
  37:      1024.64 cm**-1
  38:      1033.75 cm**-1
  39:      1113.28 cm**-1
  40:      1152.18 cm**-1
  41:      1182.25 cm**-1
  42:      1194.75 cm**-1
  43:      1196.29 cm**-1
  44:      1217.03 cm**-1
  45:      1223.89 cm**-1
  46:      1244.68 cm**-1
  47:      1301.99 cm**-1
  48:      1326.16 cm**-1
  49:      1346.63 cm**-1
  50:      1358.59 cm**-1
  51:      1379.75 cm**-1
  52:      1407.53 cm**-1
  53:      1411.88 cm**-1
  54:      1462.00 cm**-1
  55:      1486.22 cm**-1
  56:      1573.41 cm**-1
  57:      1655.02 cm**-1
  58:      1664.67 cm**-1
  59:      1708.07 cm**-1
  60:      1910.44 cm**-1
  61:      3033.04 cm**-1
  62:      3066.95 cm**-1
  63:      3126.34 cm**-1
  64:      3185.44 cm**-1
  65:      3202.04 cm**-1
  66:      3203.07 cm**-1
  67:      3233.22 cm**-1
  68:      3531.03 cm**-1
  69:      3603.71 cm**-1
  70:      3730.91 cm**-1
  71:      3883.19 cm**-1

IR SPECTRUM
-----------

 Mode    freq (cm**-1)   T**2         TX         TY         TZ
-------------------------------------------------------------------
   6:        37.46    3.556446  (  0.255484  -1.807129  -0.474825)
   7:        40.22    1.847804  ( -0.440471   1.281699  -0.105051)
   8:        63.05    1.758456  (  0.108346   1.301802  -0.228097)
   9:        93.47    5.892852  ( -0.908147   2.172898  -0.588758)
  10:       169.13    1.688422  ( -0.021983   0.778878   1.039850)
  11:       198.72   37.451684  (  0.345386  -6.109918  -0.036035)
  12:       258.99    2.306453  (  0.591052   0.330658  -1.359329)
  13:       305.89    4.921553  (  0.885973   1.863103  -0.815753)
  14:       311.01   11.789720  ( -2.510801  -1.053471   2.091841)
  15:       330.32   15.972946  (  2.987723  -2.258600  -1.394698)
  16:       383.63   12.283295  ( -1.910820   0.202524   2.931049)
  17:       393.69  111.174622  (  0.871001  -7.104926   7.741834)
  18:       426.54    1.291753  ( -1.078695  -0.109615  -0.340815)
  19:       432.62    7.292769  (  2.524338   0.952913   0.111548)
  20:       482.46    8.684277  ( -2.549325   1.468091   0.173003)
  21:       533.01   20.184275  ( -1.047815   3.351749  -2.802167)
  22:       563.96   23.803105  (  0.359280   4.586578  -1.623985)
  23:       580.14   35.564686  (  2.429099  -5.438338   0.297729)
  24:       646.93   29.882085  ( -3.356548   3.337516  -2.734348)
  25:       653.78    1.113969  (  0.071050  -0.768600   0.719844)
  26:       731.69    0.510184  ( -0.689951   0.139642   0.121046)
  27:       745.88    2.831534  (  0.523410  -0.666225   1.453864)
  28:       802.45   10.352200  ( -2.272042   1.524068  -1.693293)
  29:       820.97    4.868592  (  0.896093   2.014960   0.074459)
  30:       832.62    8.357450  (  0.255430   1.360811  -2.537794)
  31:       861.57   37.811318  (  1.395838   2.960248  -5.205755)
  32:       878.69    6.226432  ( -2.147127   0.909326  -0.888483)
  33:       927.57  113.656062  ( -6.983559   0.903360   8.004368)
  34:       965.18    5.235900  ( -1.733735  -0.011192   1.493298)
  35:       990.06    9.064308  (  2.239401   0.303463  -1.989297)
  36:       993.86   26.084722  ( -4.143172   0.197135   2.979931)
  37:      1024.64    1.704533  ( -1.288648   0.138529   0.157252)
  38:      1033.75   39.166039  ( -4.824944  -0.386058   3.966978)
  39:      1113.28   16.157188  (  2.240898   1.990532   2.678310)
  40:      1152.18    7.524452  (  1.528110  -2.276367  -0.086529)
  41:      1182.25   12.907654  ( -3.503776  -0.020620  -0.794219)
  42:      1194.75  108.218411  (-10.372542   0.769675   0.190720)
  43:      1196.29   70.124969  ( -8.261078   1.183669   0.691729)
  44:      1217.03    3.044234  ( -0.231335   0.351924   1.693183)
  45:      1223.89    2.711918  (  1.206993  -0.961612  -0.574794)
  46:      1244.68    1.678846  (  0.813611   0.014654  -1.008300)
  47:      1301.99   69.473637  (  6.648562   0.375526  -5.012908)
  48:      1326.16   74.116383  ( -8.050751   1.247269   2.783185)
  49:      1346.63   45.905721  ( -6.749234   0.049893  -0.592512)
  50:      1358.59   61.711212  (  7.819183   0.278102   0.703026)
  51:      1379.75   65.505553  ( -6.606690  -1.337996   4.479617)
  52:      1407.53   36.400150  (  5.863619   1.413267  -0.144222)
  53:      1411.88   44.340928  (  4.672773  -0.015974  -4.744035)
  54:      1462.00    6.574018  ( -0.760464  -1.945431   1.486948)
  55:      1486.22   23.740238  (  4.789898   0.887436   0.097832)
  56:      1573.41  148.458108  (-12.164051   0.652951   0.260062)
  57:      1655.02   19.574993  (  3.390067   0.661762   2.764871)
  58:      1664.67   15.359684  ( -3.587378   1.522536   0.415076)
  59:      1708.07   92.795687  ( -9.594277   0.003048  -0.863443)
  60:      1910.44  386.912170  (-15.763855   3.416873 -11.257798)
  61:      3033.04   11.311386  (  2.714035   1.950241   0.376778)
  62:      3066.95   18.492056  ( -2.948881  -3.069690   0.610865)
  63:      3126.34    4.788345  ( -0.788808  -1.167849  -1.673994)
  64:      3185.44   10.961625  (  3.271243   0.221992   0.459690)
  65:      3202.04    5.804815  (  0.986668   1.711135   1.379608)
  66:      3203.07    1.088053  ( -1.026537  -0.184552   0.014655)
  67:      3233.22    0.845599  (  0.760535  -0.486409  -0.174904)
  68:      3531.03    4.977051  (  1.622666  -0.339244   1.492957)
  69:      3603.71    8.024988  ( -0.491267   2.726709  -0.590512)
  70:      3730.91  402.545950  ( 15.089720  -6.484612  11.523720)
  71:      3883.19   98.131357  (  7.794954   4.664656   3.951080)

--------------------------
THERMOCHEMISTRY AT 298.15K
--------------------------

Temperature         ... 298.15 K
Pressure            ... 1.00 atm
Total Mass          ... 181.19 AMU

Throughout the following assumptions are being made:
  (1) The electronic state is orbitally nondegenerate
  (2) There are no thermally accessible electronically excited states
  (3) Hindered rotations indicated by low frequency modes are not
      treated as such but are treated as vibrations and this may
      cause some error
  (4) All equations used are the standard statistical mechanics
      equations for an ideal gas
  (5) All vibrations are strictly harmonic

freq.      37.46  E(vib)   ...       0.54
freq.      40.22  E(vib)   ...       0.54
freq.      63.05  E(vib)   ...       0.51
freq.      93.47  E(vib)   ...       0.47
freq.     169.13  E(vib)   ...       0.38
freq.     198.72  E(vib)   ...       0.35
freq.     258.99  E(vib)   ...       0.30
freq.     305.89  E(vib)   ...       0.26
freq.     311.01  E(vib)   ...       0.26
freq.     330.32  E(vib)   ...       0.24
freq.     383.63  E(vib)   ...       0.20
freq.     393.69  E(vib)   ...       0.20
freq.     426.54  E(vib)   ...       0.18
freq.     432.62  E(vib)   ...       0.18
freq.     482.46  E(vib)   ...       0.15
freq.     533.01  E(vib)   ...       0.13
freq.     563.96  E(vib)   ...       0.11
freq.     580.14  E(vib)   ...       0.11
freq.     646.93  E(vib)   ...       0.09
freq.     653.78  E(vib)   ...       0.08
freq.     731.69  E(vib)   ...       0.06
freq.     745.88  E(vib)   ...       0.06
freq.     802.45  E(vib)   ...       0.05
freq.     820.97  E(vib)   ...       0.05
freq.     832.62  E(vib)   ...       0.04
freq.     861.57  E(vib)   ...       0.04
freq.     878.69  E(vib)   ...       0.04
freq.     927.57  E(vib)   ...       0.03
freq.     965.18  E(vib)   ...       0.03
freq.     990.06  E(vib)   ...       0.02
freq.     993.86  E(vib)   ...       0.02
freq.    1024.64  E(vib)   ...       0.02
freq.    1033.75  E(vib)   ...       0.02
freq.    1113.28  E(vib)   ...       0.01
freq.    1152.18  E(vib)   ...       0.01
freq.    1182.25  E(vib)   ...       0.01
freq.    1194.75  E(vib)   ...       0.01
freq.    1196.29  E(vib)   ...       0.01
freq.    1217.03  E(vib)   ...       0.01
freq.    1223.89  E(vib)   ...       0.01
freq.    1244.68  E(vib)   ...       0.01
freq.    1301.99  E(vib)   ...       0.01
freq.    1326.16  E(vib)   ...       0.01
freq.    1346.63  E(vib)   ...       0.01
freq.    1358.59  E(vib)   ...       0.01
freq.    1379.75  E(vib)   ...       0.01
freq.    1407.53  E(vib)   ...       0.00
freq.    1411.88  E(vib)   ...       0.00
freq.    1462.00  E(vib)   ...       0.00
freq.    1486.22  E(vib)   ...       0.00
freq.    1573.41  E(vib)   ...       0.00
freq.    1655.02  E(vib)   ...       0.00
freq.    1664.67  E(vib)   ...       0.00
freq.    1708.07  E(vib)   ...       0.00
freq.    1910.44  E(vib)   ...       0.00
freq.    3033.04  E(vib)   ...       0.00
freq.    3066.95  E(vib)   ...       0.00
freq.    3126.34  E(vib)   ...       0.00
freq.    3185.44  E(vib)   ...       0.00
freq.    3202.04  E(vib)   ...       0.00
freq.    3203.07  E(vib)   ...       0.00
freq.    3233.22  E(vib)   ...       0.00
freq.    3531.03  E(vib)   ...       0.00
freq.    3603.71  E(vib)   ...       0.00
freq.    3730.91  E(vib)   ...       0.00
freq.    3883.19  E(vib)   ...       0.00

------------
INNER ENERGY
------------

The inner energy is: U= E(el) + E(ZPE) + E(vib) + E(rot) + E(trans)
    E(el)   - is the total energy from the electronic structure calculation
              = E(kin-el) + E(nuc-el) + E(el-el) + E(nuc-nuc)
    E(ZPE)  - the the zero temperature vibrational energy from the frequency calculation
    E(vib)  - the the finite temperature correction to E(ZPE) due to population
              of excited vibrational states
    E(rot)  - is the rotational thermal energy
    E(trans)- is the translational thermal energy

Summary of contributions to the inner energy U:
Electronic energy                ...   -628.85568936 Eh
Zero point energy                ...      0.19553417 Eh     122.70 kcal/mol
Thermal vibrational correction   ...      0.00938079 Eh       5.89 kcal/mol
Thermal rotational correction    ...      0.00141627 Eh       0.89 kcal/mol
Thermal translational correction ...      0.00141627 Eh       0.89 kcal/mol
-----------------------------------------------------------------------
Total thermal energy                   -628.64794186 Eh

Summary of corrections to the electronic energy:
(perhaps to be used in another calculation)
Total thermal correction                  0.01221333 Eh       7.66 kcal/mol
Non-thermal (ZPE) correction              0.19553417 Eh     122.70 kcal/mol
-----------------------------------------------------------------------
Total correction                          0.20774750 Eh     130.36 kcal/mol

--------
ENTHALPY
--------

The enthalpy is H = U + kB*T
                kB is Boltzmann's constant
Total free energy                 ...   -628.64794186 Eh
Thermal Enthalpy correction       ...      0.00094421 Eh       0.59 kcal/mol
-----------------------------------------------------------------------
Total Enthalpy                    ...   -628.64699765 Eh

Vibrational entropy computed according to the QRRHO of S. Grimme
Chem.Eur.J. 2012 18 9955

check

-------
ENTROPY
-------

The entropy contributions are T*S = T*(S(el)+S(vib)+S(rot)+S(trans)
     S(el)   - electronic entropy
     S(vib)  - vibrational entropy
     S(rot)  - rotational entropy
     S(trans)- translational entropy
The entropies will be listed as mutliplied by the temperature to get
units of energy

Electronic entropy                ...      0.00000000 Eh      0.00 kcal/mol
Vibrational entropy               ...      0.01611879 Eh     10.11 kcal/mol
Rotational entropy                ...      0.01387178 Eh      8.70 kcal/mol
Translational entropy             ...      0.01971305 Eh     12.37 kcal/mol
-----------------------------------------------------------------------
Final entropy term                ...      0.04970362 Eh     31.19 kcal/mol

CAUTION: The rotational entropy is not quite correctly treated here
         because it includes a symmetry number that is not yet correctly
         implemented in ORCA!
For a nonlinear molecule the correct rotational entropy is:
    S(rot) = R*(ln(qrot/sn)+1.5)
    R    = 8.31441 J/mol/K = 1.987191683e-3 kcal/mol/K
    qrot = 1607956.9212602
    sn is the rotational symmetry number. We have assumed 3 here
       if it is different for your molecule then you should correct

                             ****ORCA TERMINATED NORMALLY****
TOTAL RUN TIME: 0 days 3 hours 36 minutes 43 seconds 108 msec
