                         Program Version 4.0.0 -  RELEASE  -
|  1> ! PBE0
|  2> ! opt anfreq
|  3> * xyzfile 0 1 lysine.xyz **                         ****END OF INPUT****
 Total Charge           Charge          ....    0
 Multiplicity           Mult            ....    1
 Number of Electrons    NEL             ....   80
FINAL SINGLE POINT ENERGY      -496.085915812040
FINAL SINGLE POINT ENERGY      -496.095802309419
FINAL SINGLE POINT ENERGY      -496.097885847872
FINAL SINGLE POINT ENERGY      -496.098641785483
FINAL SINGLE POINT ENERGY      -496.099116228202
FINAL SINGLE POINT ENERGY      -496.099189508008
FINAL SINGLE POINT ENERGY      -496.099257350323
FINAL SINGLE POINT ENERGY      -496.099271078705
FINAL SINGLE POINT ENERGY      -496.099275632002
                    ***********************HURRAY********************

CARTESIAN COORDINATES (ANGSTROEM)
---------------------------------
  C      0.971857   -0.045571    0.075971
  C      0.478668   -0.590027   -1.257555
  C     -1.036040   -0.630521   -1.380101
  N     -1.435721   -1.212312   -2.644993
  C      2.490957   -0.020323    0.179156
  C      3.080111    0.626557    1.441163
  C      2.691852   -0.180506    2.685926
  O      3.415950   -0.992970    3.187096
  O      1.467100    0.048516    3.191446
  N      4.510619    0.751744    1.295400
  H      0.542740   -0.657175    0.888551
  H      0.576677    0.979816    0.214751
  H      0.865831   -1.610188   -1.418435
  H      0.893461    0.024599   -2.077593
  H     -1.436820    0.391846   -1.194543
  H     -1.439957   -1.261530   -0.569297
  H     -1.167630   -0.603906   -3.416853
  H     -2.446562   -1.312664   -2.696056
  H      2.919889    0.534149   -0.670677
  H      2.884722   -1.049992    0.105264
  H      2.650132    1.642915    1.536487
  H      1.023772    0.735785    2.679032
  H      4.916209   -0.184262    1.342273
  H      4.897202    1.240871    2.100927

 Multiplicity           Mult            ....    1
 Number of Electrons    NEL             ....   80
 Basis Dimension        Dim             ....  210

ORBITAL ENERGIES
----------------

  NO   OCC          E(Eh)            E(eV)
   0   2.0000     -19.261742      -524.1387
   1   2.0000     -19.195808      -522.3445
   2   2.0000     -14.377045      -391.2193
   3   2.0000     -14.370428      -391.0392
   4   2.0000     -10.356957      -281.8271
   5   2.0000     -10.282456      -279.7998
   6   2.0000     -10.257237      -279.1136
   7   2.0000     -10.245397      -278.7914
   8   2.0000     -10.245173      -278.7853
   9   2.0000     -10.233532      -278.4686
  10   2.0000      -1.127059       -30.6688
  11   2.0000      -1.041182       -28.3320
  12   2.0000      -0.919201       -25.0127
  13   2.0000      -0.902315       -24.5532
  14   2.0000      -0.823785       -22.4163
  15   2.0000      -0.757663       -20.6171
  16   2.0000      -0.691681       -18.8216
  17   2.0000      -0.642307       -17.4781
  18   2.0000      -0.626266       -17.0416
  19   2.0000      -0.603828       -16.4310
  20   2.0000      -0.554494       -15.0885
  21   2.0000      -0.514635       -14.0039
  22   2.0000      -0.509739       -13.8707
  23   2.0000      -0.493478       -13.4282
  24   2.0000      -0.478482       -13.0201
  25   2.0000      -0.467789       -12.7292
  26   2.0000      -0.462922       -12.5967
  27   2.0000      -0.440040       -11.9741
  28   2.0000      -0.428961       -11.6726
  29   2.0000      -0.414181       -11.2704
  30   2.0000      -0.410088       -11.1591
  31   2.0000      -0.383704       -10.4411
  32   2.0000      -0.368886       -10.0379
  33   2.0000      -0.359396        -9.7797
  34   2.0000      -0.353874        -9.6294
  35   2.0000      -0.344643        -9.3782
  36   2.0000      -0.332806        -9.0561
  37   2.0000      -0.293916        -7.9979
  38   2.0000      -0.261065        -7.1039
  39   2.0000      -0.248370        -6.7585
  40   0.0000       0.012011         0.3268
  41   0.0000       0.042624         1.1599
  42   0.0000       0.061247         1.6666
  43   0.0000       0.075565         2.0562
  44   0.0000       0.080822         2.1993

MULLIKEN ATOMIC CHARGES
-----------------------
   0 C :   -0.112967
   1 C :   -0.087056
   2 C :    0.069292
   3 N :   -0.268576
   4 C :    0.005283
   5 C :   -0.113674
   6 C :    0.186547
   7 O :   -0.225413
   8 O :   -0.178659
   9 N :   -0.204762
  10 H :    0.046617
  11 H :    0.022559
  12 H :    0.045253
  13 H :    0.027621
  14 H :    0.005700
  15 H :    0.026186
  16 H :    0.105600
  17 H :    0.107924
  18 H :    0.053446
  19 H :    0.040864
  20 H :    0.035551
  21 H :    0.184949
  22 H :    0.117696
  23 H :    0.110018
Sum of atomic charges:   -0.0000000

LOEWDIN ATOMIC CHARGES
----------------------
   0 C :   -0.059146
   1 C :   -0.050856
   2 C :    0.005017
   3 N :   -0.127041
   4 C :   -0.035247
   5 C :   -0.044903
   6 C :    0.061561
   7 O :   -0.165371
   8 O :   -0.027929
   9 N :   -0.095057
  10 H :    0.024671
  11 H :    0.018454
  12 H :    0.032217
  13 H :    0.023447
  14 H :   -0.001329
  15 H :    0.022537
  16 H :    0.055523
  17 H :    0.058626
  18 H :    0.036423
  19 H :    0.032799
  20 H :    0.025427
  21 H :    0.086546
  22 H :    0.061839
  23 H :    0.061790

  Mayer bond orders larger than 0.1
B(  0-C ,  1-C ) :   1.0705 B(  0-C ,  4-C ) :   1.0586 B(  0-C , 10-H ) :   0.9304
B(  0-C , 11-H ) :   0.9363 B(  1-C ,  2-C ) :   1.0671 B(  1-C , 12-H ) :   0.9418
B(  1-C , 13-H ) :   0.9469 B(  2-C ,  3-N ) :   1.0772 B(  2-C , 14-H ) :   0.9397
B(  2-C , 15-H ) :   0.9419 B(  3-N , 16-H ) :   0.9686 B(  3-N , 17-H ) :   0.9651
B(  4-C ,  5-C ) :   1.0298 B(  4-C , 18-H ) :   0.9409 B(  4-C , 19-H ) :   0.9337
B(  5-C ,  6-C ) :   0.8885 B(  5-C ,  9-N ) :   1.1239 B(  5-C , 20-H ) :   0.9151
B(  6-C ,  7-O ) :   2.1351 B(  6-C ,  8-O ) :   1.1700 B(  8-O , 21-H ) :   0.9508
B(  9-N , 22-H ) :   0.9604 B(  9-N , 23-H ) :   0.9665

FINAL SINGLE POINT ENERGY      -496.099276940446

DIPOLE MOMENT
-------------
                                X             Y             Z
Electronic contribution:      6.02469      -0.67254      11.21827
Nuclear contribution   :     -6.94031       1.87911     -11.98620
                        -----------------------------------------
Total Dipole Moment    :     -0.91562       1.20658      -0.76793
                        -----------------------------------------
Magnitude (a.u.)       :      1.69821
Magnitude (Debye)      :      4.31650

VIBRATIONAL FREQUENCIES
-----------------------

   0:         0.00 cm**-1
   1:         0.00 cm**-1
   2:         0.00 cm**-1
   3:         0.00 cm**-1
   4:         0.00 cm**-1
   5:         0.00 cm**-1
   6:        44.57 cm**-1
   7:        59.27 cm**-1
   8:        75.55 cm**-1
   9:        90.57 cm**-1
  10:       142.12 cm**-1
  11:       152.66 cm**-1
  12:       195.99 cm**-1
  13:       227.24 cm**-1
  14:       261.08 cm**-1
  15:       281.34 cm**-1
  16:       308.63 cm**-1
  17:       325.58 cm**-1
  18:       413.99 cm**-1
  19:       483.67 cm**-1
  20:       522.72 cm**-1
  21:       550.42 cm**-1
  22:       668.87 cm**-1
  23:       746.73 cm**-1
  24:       765.32 cm**-1
  25:       795.47 cm**-1
  26:       822.38 cm**-1
  27:       848.56 cm**-1
  28:       918.63 cm**-1
  29:       958.26 cm**-1
  30:       991.11 cm**-1
  31:      1038.54 cm**-1
  32:      1066.20 cm**-1
  33:      1086.06 cm**-1
  34:      1094.55 cm**-1
  35:      1138.97 cm**-1
  36:      1149.57 cm**-1
  37:      1170.93 cm**-1
  38:      1188.52 cm**-1
  39:      1200.59 cm**-1
  40:      1253.05 cm**-1
  41:      1260.60 cm**-1
  42:      1281.63 cm**-1
  43:      1312.95 cm**-1
  44:      1316.17 cm**-1
  45:      1327.14 cm**-1
  46:      1354.15 cm**-1
  47:      1368.03 cm**-1
  48:      1401.86 cm**-1
  49:      1420.93 cm**-1
  50:      1440.81 cm**-1
  51:      1460.55 cm**-1
  52:      1467.31 cm**-1
  53:      1482.12 cm**-1
  54:      1496.75 cm**-1
  55:      1637.16 cm**-1
  56:      1650.98 cm**-1
  57:      1919.76 cm**-1
  58:      2943.51 cm**-1
  59:      3016.71 cm**-1
  60:      3025.48 cm**-1
  61:      3041.92 cm**-1
  62:      3054.61 cm**-1
  63:      3074.41 cm**-1
  64:      3083.08 cm**-1
  65:      3109.50 cm**-1
  66:      3122.77 cm**-1
  67:      3526.24 cm**-1
  68:      3539.03 cm**-1
  69:      3603.80 cm**-1
  70:      3625.71 cm**-1
  71:      3858.80 cm**-1

IR SPECTRUM
-----------

 Mode    freq (cm**-1)   T**2         TX         TY         TZ
-------------------------------------------------------------------
   6:        44.57    5.139318  (  0.879956   1.507460   1.446568)
   7:        59.27    2.092680  (  0.646717   0.548973  -1.171779)
   8:        75.55    4.445018  ( -0.626838  -1.373184  -1.471889)
   9:        90.57    1.460520  (  0.731498   0.748270   0.604584)
  10:       142.12    2.904519  (  1.238087   0.139758  -1.162810)
  11:       152.66    0.756440  (  0.038985   0.224423  -0.839378)
  12:       195.99    4.277949  ( -1.250181  -1.548497  -0.563164)
  13:       227.24   37.211590  (  1.578725  -4.644583  -3.625888)
  14:       261.08   25.718748  (  4.308474   1.543453  -2.184845)
  15:       281.34   12.126192  ( -0.756623   1.969399   2.770412)
  16:       308.63   48.772219  (  5.366842   4.435686   0.542136)
  17:       325.58    7.338387  ( -1.755039  -1.589745  -1.315651)
  18:       413.99    9.881111  ( -1.580459  -2.188433  -1.610597)
  19:       483.67    1.855573  (  1.170047   0.354647  -0.600657)
  20:       522.72  129.792088  ( -3.714443  -6.626762  -8.490054)
  21:       550.42   10.848993  ( -1.891237  -1.375952  -2.319261)
  22:       668.87    8.795385  (  2.714457  -1.156384   0.299808)
  23:       746.73    4.845152  (  1.306103  -1.427026   1.050164)
  24:       765.32    2.082124  ( -0.367517   1.382753  -0.187219)
  25:       795.47   19.708834  ( -0.442298  -2.562749  -3.597989)
  26:       822.38  111.401088  ( -1.582331   9.367656   4.598297)
  27:       848.56   19.530806  ( -0.926973   2.128358   3.760535)
  28:       918.63  110.023571  (  7.919655   5.310224  -4.370831)
  29:       958.26   54.420207  (  5.178498   0.823928  -5.188883)
  30:       991.11    7.244208  ( -2.222357  -1.415349   0.549658)
  31:      1038.54   14.087492  ( -2.771210  -0.089521   2.529797)
  32:      1066.20    0.731612  (  0.175220   0.057091   0.835255)
  33:      1086.06    8.598046  (  0.639749   2.388804  -1.575558)
  34:      1094.55    1.271249  (  0.919014   0.638692   0.136873)
  35:      1138.97   17.018467  (  1.880133   1.634579   3.288118)
  36:      1149.57    3.973584  (  1.449351  -1.222592  -0.615008)
  37:      1170.93    7.096315  (  2.058780   1.450077  -0.868916)
  38:      1188.52    4.252875  ( -1.718060   0.281277  -1.105454)
  39:      1200.59    1.851863  (  0.047328  -1.068226   0.841734)
  40:      1253.05    0.391423  (  0.070916  -0.570721  -0.246317)
  41:      1260.60    0.959039  (  0.811755   0.222718  -0.500490)
  42:      1281.63  172.079042  (-11.477239   1.562816   6.157080)
  43:      1312.95   19.322744  ( -3.832741  -0.125294   2.148753)
  44:      1316.17    7.060955  ( -1.852829   0.243003   1.889161)
  45:      1327.14    4.870096  ( -0.562365  -1.070147  -1.846247)
  46:      1354.15    2.243775  ( -1.280763  -0.087747   0.771829)
  47:      1368.03  149.820591  ( 10.170594  -1.920994  -6.533711)
  48:      1401.86    9.627939  (  0.316502   0.061689  -3.086091)
  49:      1420.93   14.344049  (  3.132114  -0.474857  -2.075673)
  50:      1440.81   14.697467  ( -2.078439  -1.181118  -2.997085)
  51:      1460.55    5.202742  ( -1.493868   1.066903   1.353816)
  52:      1467.31    1.731699  (  1.210714  -0.434773  -0.277206)
  53:      1482.12    4.967208  (  1.001056  -0.622775  -1.891361)
  54:      1496.75    2.694118  ( -1.586426  -0.421123   0.005082)
  55:      1637.16   26.661525  (  2.601286  -1.782251   4.088816)
  56:      1650.98   26.867068  (  3.901982  -1.881939   2.846034)
  57:      1919.76  270.730231  ( 10.458292  -9.356000   8.591835)
  58:      2943.51   86.570910  (  3.134921  -7.492954  -4.538593)
  59:      3016.71   18.751292  (  1.775876  -2.878487  -2.704047)
  60:      3025.48   28.417646  (  3.063115  -4.150916  -1.343455)
  61:      3041.92   15.371233  ( -1.837718   0.129886   3.460803)
  62:      3054.61   29.270136  (  3.282020  -2.969774  -3.111097)
  63:      3074.41   25.475889  ( -2.158551  -2.173374   4.011607)
  64:      3083.08    3.687777  ( -1.064436  -1.057564   1.198463)
  65:      3109.50   23.772963  ( -0.148645   4.600167  -1.609140)
  66:      3122.77   26.889602  ( -0.016833  -4.533982   2.516410)
  67:      3526.24    5.176813  (  1.213073  -1.467688   1.245456)
  68:      3539.03    0.527317  (  0.417287  -0.570769  -0.165564)
  69:      3603.80    6.093528  ( -0.333963   2.317753   0.781035)
  70:      3625.71    1.904166  ( -1.121174  -0.475489   0.648879)
  71:      3858.80   53.935801  ( -4.991827   4.327424  -3.207939)

--------------------------
THERMOCHEMISTRY AT 298.15K
--------------------------

Temperature         ... 298.15 K
Pressure            ... 1.00 atm
Total Mass          ... 146.19 AMU

Throughout the following assumptions are being made:
  (1) The electronic state is orbitally nondegenerate
  (2) There are no thermally accessible electronically excited states
  (3) Hindered rotations indicated by low frequency modes are not
      treated as such but are treated as vibrations and this may
      cause some error
  (4) All equations used are the standard statistical mechanics
      equations for an ideal gas
  (5) All vibrations are strictly harmonic

freq.      44.57  E(vib)   ...       0.53
freq.      59.27  E(vib)   ...       0.51
freq.      75.55  E(vib)   ...       0.49
freq.      90.57  E(vib)   ...       0.47
freq.     142.12  E(vib)   ...       0.41
freq.     152.66  E(vib)   ...       0.40
freq.     195.99  E(vib)   ...       0.36
freq.     227.24  E(vib)   ...       0.33
freq.     261.08  E(vib)   ...       0.30
freq.     281.34  E(vib)   ...       0.28
freq.     308.63  E(vib)   ...       0.26
freq.     325.58  E(vib)   ...       0.24
freq.     413.99  E(vib)   ...       0.19
freq.     483.67  E(vib)   ...       0.15
freq.     522.72  E(vib)   ...       0.13
freq.     550.42  E(vib)   ...       0.12
freq.     668.87  E(vib)   ...       0.08
freq.     746.73  E(vib)   ...       0.06
freq.     765.32  E(vib)   ...       0.06
freq.     795.47  E(vib)   ...       0.05
freq.     822.38  E(vib)   ...       0.05
freq.     848.56  E(vib)   ...       0.04
freq.     918.63  E(vib)   ...       0.03
freq.     958.26  E(vib)   ...       0.03
freq.     991.11  E(vib)   ...       0.02
freq.    1038.54  E(vib)   ...       0.02
freq.    1066.20  E(vib)   ...       0.02
freq.    1086.06  E(vib)   ...       0.02
freq.    1094.55  E(vib)   ...       0.02
freq.    1138.97  E(vib)   ...       0.01
freq.    1149.57  E(vib)   ...       0.01
freq.    1170.93  E(vib)   ...       0.01
freq.    1188.52  E(vib)   ...       0.01
freq.    1200.59  E(vib)   ...       0.01
freq.    1253.05  E(vib)   ...       0.01
freq.    1260.60  E(vib)   ...       0.01
freq.    1281.63  E(vib)   ...       0.01
freq.    1312.95  E(vib)   ...       0.01
freq.    1316.17  E(vib)   ...       0.01
freq.    1327.14  E(vib)   ...       0.01
freq.    1354.15  E(vib)   ...       0.01
freq.    1368.03  E(vib)   ...       0.01
freq.    1401.86  E(vib)   ...       0.00
freq.    1420.93  E(vib)   ...       0.00
freq.    1440.81  E(vib)   ...       0.00
freq.    1460.55  E(vib)   ...       0.00
freq.    1467.31  E(vib)   ...       0.00
freq.    1482.12  E(vib)   ...       0.00
freq.    1496.75  E(vib)   ...       0.00
freq.    1637.16  E(vib)   ...       0.00
freq.    1650.98  E(vib)   ...       0.00
freq.    1919.76  E(vib)   ...       0.00
freq.    2943.51  E(vib)   ...       0.00
freq.    3016.71  E(vib)   ...       0.00
freq.    3025.48  E(vib)   ...       0.00
freq.    3041.92  E(vib)   ...       0.00
freq.    3054.61  E(vib)   ...       0.00
freq.    3074.41  E(vib)   ...       0.00
freq.    3083.08  E(vib)   ...       0.00
freq.    3109.50  E(vib)   ...       0.00
freq.    3122.77  E(vib)   ...       0.00
freq.    3526.24  E(vib)   ...       0.00
freq.    3539.03  E(vib)   ...       0.00
freq.    3603.80  E(vib)   ...       0.00
freq.    3625.71  E(vib)   ...       0.00
freq.    3858.80  E(vib)   ...       0.00

------------
INNER ENERGY
------------

The inner energy is: U= E(el) + E(ZPE) + E(vib) + E(rot) + E(trans)
    E(el)   - is the total energy from the electronic structure calculation
              = E(kin-el) + E(nuc-el) + E(el-el) + E(nuc-nuc)
    E(ZPE)  - the the zero temperature vibrational energy from the frequency calculation
    E(vib)  - the the finite temperature correction to E(ZPE) due to population
              of excited vibrational states
    E(rot)  - is the rotational thermal energy
    E(trans)- is the translational thermal energy

Summary of contributions to the inner energy U:
Electronic energy                ...   -496.09927694 Eh
Zero point energy                ...      0.21246679 Eh     133.32 kcal/mol
Thermal vibrational correction   ...      0.00922511 Eh       5.79 kcal/mol
Thermal rotational correction    ...      0.00141627 Eh       0.89 kcal/mol
Thermal translational correction ...      0.00141627 Eh       0.89 kcal/mol
-----------------------------------------------------------------------
Total thermal energy                   -495.87475249 Eh

Summary of corrections to the electronic energy:
(perhaps to be used in another calculation)
Total thermal correction                  0.01205765 Eh       7.57 kcal/mol
Non-thermal (ZPE) correction              0.21246679 Eh     133.32 kcal/mol
-----------------------------------------------------------------------
Total correction                          0.22452445 Eh     140.89 kcal/mol

--------
ENTHALPY
--------

The enthalpy is H = U + kB*T
                kB is Boltzmann's constant
Total free energy                 ...   -495.87475249 Eh
Thermal Enthalpy correction       ...      0.00094421 Eh       0.59 kcal/mol
-----------------------------------------------------------------------
Total Enthalpy                    ...   -495.87380829 Eh

Vibrational entropy computed according to the QRRHO of S. Grimme
Chem.Eur.J. 2012 18 9955

check

-------
ENTROPY
-------

The entropy contributions are T*S = T*(S(el)+S(vib)+S(rot)+S(trans)
     S(el)   - electronic entropy
     S(vib)  - vibrational entropy
     S(rot)  - rotational entropy
     S(trans)- translational entropy
The entropies will be listed as mutliplied by the temperature to get
units of energy

Electronic entropy                ...      0.00000000 Eh      0.00 kcal/mol
Vibrational entropy               ...      0.01634571 Eh     10.26 kcal/mol
Rotational entropy                ...      0.01354034 Eh      8.50 kcal/mol
Translational entropy             ...      0.01940905 Eh     12.18 kcal/mol
-----------------------------------------------------------------------
Final entropy term                ...      0.04929510 Eh     30.93 kcal/mol

CAUTION: The rotational entropy is not quite correctly treated here
         because it includes a symmetry number that is not yet correctly
         implemented in ORCA!
For a nonlinear molecule the correct rotational entropy is:
    S(rot) = R*(ln(qrot/sn)+1.5)
    R    = 8.31441 J/mol/K = 1.987191683e-3 kcal/mol/K
    qrot = 1131942.2476252
    sn is the rotational symmetry number. We have assumed 3 here
       if it is different for your molecule then you should correct

                             ****ORCA TERMINATED NORMALLY****
TOTAL RUN TIME: 0 days 1 hours 43 minutes 27 seconds 668 msec
