                         Program Version 4.0.0 -  RELEASE  -
|  1> ! PBE0
|  2> ! opt anfreq
|  3> * xyzfile 0 1 glycine.xyz **                         ****END OF INPUT****
 Total Charge           Charge          ....    0
 Multiplicity           Mult            ....    1
 Number of Electrons    NEL             ....   40
FINAL SINGLE POINT ENERGY      -283.888653678459
FINAL SINGLE POINT ENERGY      -283.895541481520
FINAL SINGLE POINT ENERGY      -283.897728864553
FINAL SINGLE POINT ENERGY      -283.898072147142
FINAL SINGLE POINT ENERGY      -283.898654506306
FINAL SINGLE POINT ENERGY      -283.898958952854
FINAL SINGLE POINT ENERGY      -283.899364772700
FINAL SINGLE POINT ENERGY      -283.899581205279
FINAL SINGLE POINT ENERGY      -283.899644387078
FINAL SINGLE POINT ENERGY      -283.899692943340
FINAL SINGLE POINT ENERGY      -283.899710051365
FINAL SINGLE POINT ENERGY      -283.899722593308
FINAL SINGLE POINT ENERGY      -283.899728390435
FINAL SINGLE POINT ENERGY      -283.899731754279
FINAL SINGLE POINT ENERGY      -283.899733267616
FINAL SINGLE POINT ENERGY      -283.899729223418
FINAL SINGLE POINT ENERGY      -283.899732380323
                    ***********************HURRAY********************

CARTESIAN COORDINATES (ANGSTROEM)
---------------------------------
  C      0.951744   -0.044643   -0.082617
  C      0.522209   -0.338008   -1.509612
  O      1.277573   -0.720005   -2.356300
  O     -0.785864   -0.193705   -1.763208
  N      2.373869    0.129325   -0.010008
  H      0.545307   -0.888675    0.518838
  H      0.411162    0.857301    0.269255
  H     -1.239796    0.158824   -0.987965
  H      2.800855   -0.387452   -0.778713
  H      2.752411   -0.227111    0.861309

 Multiplicity           Mult            ....    1
 Number of Electrons    NEL             ....   40
 Basis Dimension        Dim             ....   95

ORBITAL ENERGIES
----------------

  NO   OCC          E(Eh)            E(eV)
   0   2.0000     -19.265981      -524.2540
   1   2.0000     -19.201642      -522.5033
   2   2.0000     -14.374878      -391.1603
   3   2.0000     -10.367522      -282.1146
   4   2.0000     -10.284111      -279.8449
   5   2.0000      -1.133846       -30.8535
   6   2.0000      -1.048345       -28.5269
   7   2.0000      -0.911901       -24.8141
   8   2.0000      -0.729785       -19.8585
   9   2.0000      -0.643671       -17.5152
  10   2.0000      -0.557127       -15.1602
  11   2.0000      -0.513035       -13.9604
  12   2.0000      -0.492159       -13.3923
  13   2.0000      -0.471466       -12.8292
  14   2.0000      -0.437831       -11.9140
  15   2.0000      -0.424685       -11.5563
  16   2.0000      -0.394999       -10.7485
  17   2.0000      -0.341934        -9.3045
  18   2.0000      -0.298818        -8.1312
  19   2.0000      -0.256137        -6.9699
  20   0.0000       0.011693         0.3182
  21   0.0000       0.037012         1.0072
  22   0.0000       0.073547         2.0013
  23   0.0000       0.124004         3.3743
  24   0.0000       0.130087         3.5399

MULLIKEN ATOMIC CHARGES
-----------------------
   0 C :   -0.011927
   1 C :    0.160336
   2 O :   -0.229326
   3 O :   -0.180176
   4 N :   -0.264783
   5 H :    0.057716
   6 H :    0.044707
   7 H :    0.185508
   8 H :    0.126120
   9 H :    0.111826
Sum of atomic charges:   -0.0000000

LOEWDIN ATOMIC CHARGES
----------------------
   0 C :   -0.039740
   1 C :    0.073163
   2 O :   -0.158688
   3 O :   -0.028048
   4 N :   -0.121231
   5 H :    0.030500
   6 H :    0.025808
   7 H :    0.095071
   8 H :    0.061075
   9 H :    0.062089

  Mayer bond orders larger than 0.1
B(  0-C ,  1-C ) :   0.9594 B(  0-C ,  4-N ) :   1.1015 B(  0-C ,  5-H ) :   0.9148
B(  0-C ,  6-H ) :   0.9306 B(  1-C ,  2-O ) :   2.0961 B(  1-C ,  3-O ) :   1.1914
B(  3-O ,  7-H ) :   0.9571 B(  4-N ,  8-H ) :   0.9480 B(  4-N ,  9-H ) :   0.9602

FINAL SINGLE POINT ENERGY      -283.899733896639

DIPOLE MOMENT
-------------
                                X             Y             Z
Electronic contribution:     -1.54380      -0.67463      -3.73840
Nuclear contribution   :      0.92685       0.65675       5.19861
                        -----------------------------------------
Total Dipole Moment    :     -0.61695      -0.01788       1.46021
                        -----------------------------------------
Magnitude (a.u.)       :      1.58530
Magnitude (Debye)      :      4.02951

VIBRATIONAL FREQUENCIES
-----------------------

   0:         0.00 cm**-1
   1:         0.00 cm**-1
   2:         0.00 cm**-1
   3:         0.00 cm**-1
   4:         0.00 cm**-1
   5:         0.00 cm**-1
   6:        90.56 cm**-1
   7:       169.11 cm**-1
   8:       292.54 cm**-1
   9:       469.98 cm**-1
  10:       483.52 cm**-1
  11:       574.72 cm**-1
  12:       669.85 cm**-1
  13:       826.92 cm**-1
  14:       879.53 cm**-1
  15:      1018.12 cm**-1
  16:      1146.04 cm**-1
  17:      1173.75 cm**-1
  18:      1231.65 cm**-1
  19:      1254.79 cm**-1
  20:      1329.02 cm**-1
  21:      1440.43 cm**-1
  22:      1480.71 cm**-1
  23:      1617.65 cm**-1
  24:      1929.85 cm**-1
  25:      2961.33 cm**-1
  26:      3015.78 cm**-1
  27:      3540.86 cm**-1
  28:      3650.51 cm**-1
  29:      3860.19 cm**-1

IR SPECTRUM
-----------

 Mode    freq (cm**-1)   T**2         TX         TY         TZ
-------------------------------------------------------------------
   6:        90.56   12.696075  (  2.068975   0.892804   2.760130)
   7:       169.11   41.075220  ( -0.278775  -1.693181  -6.175001)
   8:       292.54   13.181550  (  3.382538   0.549174   1.199331)
   9:       469.98   51.499398  ( -0.043198  -6.689029   2.598927)
  10:       483.52   48.301921  ( -2.214522  -6.024899   2.664284)
  11:       574.72   10.703846  (  1.595652   2.847843   0.218016)
  12:       669.85    6.888914  (  0.472280  -1.834682  -1.816537)
  13:       826.92  172.889837  (  9.173670   9.392724  -0.714388)
  14:       879.53   12.117930  ( -2.818805   0.077038   2.041160)
  15:      1018.12    5.041111  (  1.567195   1.000085   1.258905)
  16:      1146.04    7.644277  ( -2.697469  -0.343720  -0.499797)
  17:      1173.75    1.050486  (  0.147527   0.066166   1.012099)
  18:      1231.65   23.607774  (  4.696413  -1.065578  -0.644998)
  19:      1254.79   28.422856  (  5.276584  -0.361742   0.670569)
  20:      1329.02  323.320313  ( 17.052076  -1.670420   5.454970)
  21:      1440.43  109.243181  (  8.138071  -0.622164   6.529004)
  22:      1480.71    0.789803  ( -0.053547   0.500153   0.732655)
  23:      1617.65   57.317109  (  6.705676  -3.509491  -0.185733)
  24:      1929.85  250.945754  (-10.038721   4.520690  11.390048)
  25:      2961.33   51.695715  (  6.159888   3.206778  -1.862275)
  26:      3015.78   38.832829  (  4.039026  -4.724132  -0.449078)
  27:      3540.86   18.257892  (  0.780969  -2.560262  -3.330621)
  28:      3650.51   17.817483  (  0.384139   0.024075   4.203491)
  29:      3860.19   64.398144  ( -5.657438   2.858877   4.921215)

--------------------------
THERMOCHEMISTRY AT 298.15K
--------------------------

Temperature         ... 298.15 K
Pressure            ... 1.00 atm
Total Mass          ... 75.07 AMU

Throughout the following assumptions are being made:
  (1) The electronic state is orbitally nondegenerate
  (2) There are no thermally accessible electronically excited states
  (3) Hindered rotations indicated by low frequency modes are not
      treated as such but are treated as vibrations and this may
      cause some error
  (4) All equations used are the standard statistical mechanics
      equations for an ideal gas
  (5) All vibrations are strictly harmonic

freq.      90.56  E(vib)   ...       0.47
freq.     169.11  E(vib)   ...       0.38
freq.     292.54  E(vib)   ...       0.27
freq.     469.98  E(vib)   ...       0.16
freq.     483.52  E(vib)   ...       0.15
freq.     574.72  E(vib)   ...       0.11
freq.     669.85  E(vib)   ...       0.08
freq.     826.92  E(vib)   ...       0.04
freq.     879.53  E(vib)   ...       0.04
freq.    1018.12  E(vib)   ...       0.02
freq.    1146.04  E(vib)   ...       0.01
freq.    1173.75  E(vib)   ...       0.01
freq.    1231.65  E(vib)   ...       0.01
freq.    1254.79  E(vib)   ...       0.01
freq.    1329.02  E(vib)   ...       0.01
freq.    1440.43  E(vib)   ...       0.00
freq.    1480.71  E(vib)   ...       0.00
freq.    1617.65  E(vib)   ...       0.00
freq.    1929.85  E(vib)   ...       0.00
freq.    2961.33  E(vib)   ...       0.00
freq.    3015.78  E(vib)   ...       0.00
freq.    3540.86  E(vib)   ...       0.00
freq.    3650.51  E(vib)   ...       0.00
freq.    3860.19  E(vib)   ...       0.00

------------
INNER ENERGY
------------

The inner energy is: U= E(el) + E(ZPE) + E(vib) + E(rot) + E(trans)
    E(el)   - is the total energy from the electronic structure calculation
              = E(kin-el) + E(nuc-el) + E(el-el) + E(nuc-nuc)
    E(ZPE)  - the the zero temperature vibrational energy from the frequency calculation
    E(vib)  - the the finite temperature correction to E(ZPE) due to population
              of excited vibrational states
    E(rot)  - is the rotational thermal energy
    E(trans)- is the translational thermal energy

Summary of contributions to the inner energy U:
Electronic energy                ...   -283.89973390 Eh
Zero point energy                ...      0.07998056 Eh      50.19 kcal/mol
Thermal vibrational correction   ...      0.00283360 Eh       1.78 kcal/mol
Thermal rotational correction    ...      0.00141627 Eh       0.89 kcal/mol
Thermal translational correction ...      0.00141627 Eh       0.89 kcal/mol
-----------------------------------------------------------------------
Total thermal energy                   -283.81408719 Eh

Summary of corrections to the electronic energy:
(perhaps to be used in another calculation)
Total thermal correction                  0.00566615 Eh       3.56 kcal/mol
Non-thermal (ZPE) correction              0.07998056 Eh      50.19 kcal/mol
-----------------------------------------------------------------------
Total correction                          0.08564671 Eh      53.74 kcal/mol

--------
ENTHALPY
--------

The enthalpy is H = U + kB*T
                kB is Boltzmann's constant
Total free energy                 ...   -283.81408719 Eh
Thermal Enthalpy correction       ...      0.00094421 Eh       0.59 kcal/mol
-----------------------------------------------------------------------
Total Enthalpy                    ...   -283.81314298 Eh

Vibrational entropy computed according to the QRRHO of S. Grimme
Chem.Eur.J. 2012 18 9955

check

-------
ENTROPY
-------

The entropy contributions are T*S = T*(S(el)+S(vib)+S(rot)+S(trans)
     S(el)   - electronic entropy
     S(vib)  - vibrational entropy
     S(rot)  - rotational entropy
     S(trans)- translational entropy
The entropies will be listed as mutliplied by the temperature to get
units of energy

Electronic entropy                ...      0.00000000 Eh      0.00 kcal/mol
Vibrational entropy               ...      0.00478161 Eh      3.00 kcal/mol
Rotational entropy                ...      0.01101287 Eh      6.91 kcal/mol
Translational entropy             ...      0.01846507 Eh     11.59 kcal/mol
-----------------------------------------------------------------------
Final entropy term                ...      0.03425956 Eh     21.50 kcal/mol

CAUTION: The rotational entropy is not quite correctly treated here
         because it includes a symmetry number that is not yet correctly
         implemented in ORCA!
For a nonlinear molecule the correct rotational entropy is:
    S(rot) = R*(ln(qrot/sn)+1.5)
    R    = 8.31441 J/mol/K = 1.987191683e-3 kcal/mol/K
    qrot = 77851.4104196
    sn is the rotational symmetry number. We have assumed 3 here
       if it is different for your molecule then you should correct
       the printed rotational entropy by manually evaluating the equation
       as given above

For convenience we print out the resulting values for sn=1 - 12:
 sn= 1  qrot/sn=   77851.4104 T*S(rot)=     7.56 kcal/mol T*S(tot)=    22.15 kcal/mol
 sn= 2  qrot/sn=   38925.7052 T*S(rot)=     7.15 kcal/mol T*S(tot)=    21.74 kcal/mol
 sn= 3  qrot/sn=   25950.4701 T*S(rot)=     6.91 kcal/mol T*S(tot)=    21.50 kcal/mol
 sn= 4  qrot/sn=   19462.8526 T*S(rot)=     6.74 kcal/mol T*S(tot)=    21.33 kcal/mol
 sn= 5  qrot/sn=   15570.2821 T*S(rot)=     6.61 kcal/mol T*S(tot)=    21.20 kcal/mol
 sn= 6  qrot/sn=   12975.2351 T*S(rot)=     6.50 kcal/mol T*S(tot)=    21.09 kcal/mol
 sn= 7  qrot/sn=   11121.6301 T*S(rot)=     6.41 kcal/mol T*S(tot)=    21.00 kcal/mol
 sn= 8  qrot/sn=    9731.4263 T*S(rot)=     6.33 kcal/mol T*S(tot)=    20.92 kcal/mol
 sn= 9  qrot/sn=    8650.1567 T*S(rot)=     6.26 kcal/mol T*S(tot)=    20.85 kcal/mol
 sn=10  qrot/sn=    7785.1410 T*S(rot)=     6.20 kcal/mol T*S(tot)=    20.78 kcal/mol
 sn=11  qrot/sn=    7077.4009 T*S(rot)=     6.14 kcal/mol T*S(tot)=    20.73 kcal/mol
 sn=12  qrot/sn=    6487.6175 T*S(rot)=     6.09 kcal/mol T*S(tot)=    20.68 kcal/mol

-------------------
GIBBS FREE ENTHALPY
-------------------

The Gibbs free enthalpy is G = H - T*S

Total enthalpy                    ...   -283.81314298 Eh
Total entropy correction          ...     -0.03425956 Eh    -21.50 kcal/mol
-----------------------------------------------------------------------
Final Gibbs free enthalpy         ...   -283.84740253 Eh

For completeness - the Gibbs free enthalpy minus the electronic energy
G-E(el)                           ...      0.05233136 Eh     32.84 kcal/mol

                             ****ORCA TERMINATED NORMALLY****
TOTAL RUN TIME: 0 days 0 hours 5 minutes 38 seconds 800 msec
