                         Program Version 4.0.0 -  RELEASE  -
|  1> ! PBE0
|  2> ! opt anfreq
|  3> * xyzfile 0 1 methionine.xyz **                         ****END OF INPUT****
 Total Charge           Charge          ....    0
 Multiplicity           Mult            ....    1
 Number of Electrons    NEL             ....   80
FINAL SINGLE POINT ENERGY      -799.527211386689
FINAL SINGLE POINT ENERGY      -799.535393617362
FINAL SINGLE POINT ENERGY      -799.537265407544
FINAL SINGLE POINT ENERGY      -799.538191495741
FINAL SINGLE POINT ENERGY      -799.538541746553
FINAL SINGLE POINT ENERGY      -799.538640468664
FINAL SINGLE POINT ENERGY      -799.538740892797
FINAL SINGLE POINT ENERGY      -799.538768594986
FINAL SINGLE POINT ENERGY      -799.538777074192
FINAL SINGLE POINT ENERGY      -799.538780180103
                    ***********************HURRAY********************

CARTESIAN COORDINATES (ANGSTROEM)
---------------------------------
  C      1.034697   -0.003128    0.035399
  S      2.824194    0.199838   -0.025652
  C      3.272218   -0.547534    1.565097
  C      4.786798   -0.604218    1.690112
  C      5.322659   -1.070660    3.052398
  C      4.861080   -2.505728    3.335847
  O      5.526721   -3.465398    3.070701
  O      3.638134   -2.647125    3.877172
  N      6.759176   -0.942723    3.065083
  H      0.633812    0.413876   -0.898972
  H      0.590665    0.546154    0.879894
  H      0.749598   -1.064736    0.094485
  H      2.825590   -1.554187    1.618993
  H      2.838763    0.061058    2.380508
  H      5.220384    0.392625    1.513272
  H      5.194499   -1.268935    0.909565
  H      4.906768   -0.403237    3.832127
  H      3.257292   -1.780158    4.063380
  H      7.147076   -1.665212    2.456685
  H      7.118705   -1.159294    3.992966

 Multiplicity           Mult            ....    1
 Number of Electrons    NEL             ....   80
 Basis Dimension        Dim             ....  185

ORBITAL ENERGIES
----------------

  NO   OCC          E(Eh)            E(eV)
   0   2.0000     -88.998715     -2421.7782
   1   2.0000     -19.268114      -524.3120
   2   2.0000     -19.201472      -522.4986
   3   2.0000     -14.382238      -391.3606
   4   2.0000     -10.362876      -281.9882
   5   2.0000     -10.290054      -280.0066
   6   2.0000     -10.274655      -279.5876
   7   2.0000     -10.264491      -279.3110
   8   2.0000     -10.255111      -279.0557
   9   2.0000      -7.999455      -217.6762
  10   2.0000      -5.942117      -161.6932
  11   2.0000      -5.938285      -161.5889
  12   2.0000      -5.930841      -161.3864
  13   2.0000      -1.133074       -30.8325
  14   2.0000      -1.047278       -28.4979
  15   2.0000      -0.925402       -25.1815
  16   2.0000      -0.844169       -22.9710
  17   2.0000      -0.786108       -21.3911
  18   2.0000      -0.718434       -19.5496
  19   2.0000      -0.659867       -17.9559
  20   2.0000      -0.636882       -17.3304
  21   2.0000      -0.612460       -16.6659
  22   2.0000      -0.560694       -15.2573
  23   2.0000      -0.521968       -14.2035
  24   2.0000      -0.490051       -13.3350
  25   2.0000      -0.487588       -13.2679
  26   2.0000      -0.469153       -12.7663
  27   2.0000      -0.453539       -12.3414
  28   2.0000      -0.443634       -12.0719
  29   2.0000      -0.436458       -11.8766
  30   2.0000      -0.430221       -11.7069
  31   2.0000      -0.420336       -11.4379
  32   2.0000      -0.388282       -10.5657
  33   2.0000      -0.377033       -10.2596
  34   2.0000      -0.367256        -9.9935
  35   2.0000      -0.343520        -9.3477
  36   2.0000      -0.328197        -8.9307
  37   2.0000      -0.300202        -8.1689
  38   2.0000      -0.265619        -7.2279
  39   2.0000      -0.235859        -6.4180
  40   0.0000       0.003865         0.1052
  41   0.0000       0.028687         0.7806
  42   0.0000       0.048755         1.3267
  43   0.0000       0.070004         1.9049
  44   0.0000       0.075166         2.0454

MULLIKEN ATOMIC CHARGES
-----------------------
   0 C :   -0.155457
   1 S :   -0.109821
   2 C :   -0.186203
   3 C :    0.012049
   4 C :   -0.121009
   5 C :    0.185108
   6 O :   -0.221639
   7 O :   -0.178573
   8 N :   -0.202976
   9 H :    0.088986
  10 H :    0.078065
  11 H :    0.082014
  12 H :    0.084932
  13 H :    0.061241
  14 H :    0.072177
  15 H :    0.058761
  16 H :    0.038323
  17 H :    0.184108
  18 H :    0.119739
  19 H :    0.110174
Sum of atomic charges:   -0.0000000

LOEWDIN ATOMIC CHARGES
----------------------
   0 C :   -0.180069
   1 S :    0.208556
   2 C :   -0.158826
   3 C :   -0.051629
   4 C :   -0.043190
   5 C :    0.059890
   6 O :   -0.161263
   7 O :   -0.027997
   8 N :   -0.092379
   9 H :    0.039051
  10 H :    0.026125
  11 H :    0.027795
  12 H :    0.022855
  13 H :    0.015844
  14 H :    0.040107
  15 H :    0.037137
  16 H :    0.025744
  17 H :    0.086768
  18 H :    0.062880
  19 H :    0.062601

  Mayer bond orders larger than 0.1
B(  0-C ,  1-S ) :   1.0124 B(  0-C ,  9-H ) :   0.9697 B(  0-C , 10-H ) :   0.9638
B(  0-C , 11-H ) :   0.9639 B(  1-S ,  2-C ) :   1.0128 B(  2-C ,  3-C ) :   1.0360
B(  2-C , 12-H ) :   0.9311 B(  2-C , 13-H ) :   0.9379 B(  3-C ,  4-C ) :   1.0426
B(  3-C , 14-H ) :   0.9383 B(  3-C , 15-H ) :   0.9333 B(  4-C ,  5-C ) :   0.8864
B(  4-C ,  8-N ) :   1.1264 B(  4-C , 16-H ) :   0.9166 B(  5-C ,  6-O ) :   2.1362
B(  5-C ,  7-O ) :   1.1648 B(  7-O , 17-H ) :   0.9518 B(  8-N , 18-H ) :   0.9602
B(  8-N , 19-H ) :   0.9668

FINAL SINGLE POINT ENERGY      -799.538781340981

DIPOLE MOMENT
-------------
                                X             Y             Z
Electronic contribution:      2.88178      -3.73804       1.02792
Nuclear contribution   :     -3.74263       4.57227      -0.43181
                        -----------------------------------------
Total Dipole Moment    :     -0.86085       0.83422       0.59611
                        -----------------------------------------
Magnitude (a.u.)       :      1.33878
Magnitude (Debye)      :      3.40291

VIBRATIONAL FREQUENCIES
-----------------------

   0:         0.00 cm**-1
   1:         0.00 cm**-1
   2:         0.00 cm**-1
   3:         0.00 cm**-1
   4:         0.00 cm**-1
   5:         0.00 cm**-1
   6:        41.27 cm**-1
   7:        55.39 cm**-1
   8:        88.31 cm**-1
   9:        99.54 cm**-1
  10:       135.08 cm**-1
  11:       181.60 cm**-1
  12:       195.24 cm**-1
  13:       230.60 cm**-1
  14:       259.65 cm**-1
  15:       304.22 cm**-1
  16:       343.75 cm**-1
  17:       396.67 cm**-1
  18:       528.59 cm**-1
  19:       531.77 cm**-1
  20:       667.14 cm**-1
  21:       743.26 cm**-1
  22:       753.13 cm**-1
  23:       781.84 cm**-1
  24:       818.55 cm**-1
  25:       842.83 cm**-1
  26:       918.24 cm**-1
  27:       960.68 cm**-1
  28:       968.97 cm**-1
  29:      1011.08 cm**-1
  30:      1045.69 cm**-1
  31:      1084.88 cm**-1
  32:      1117.96 cm**-1
  33:      1166.17 cm**-1
  34:      1183.80 cm**-1
  35:      1214.71 cm**-1
  36:      1267.49 cm**-1
  37:      1275.56 cm**-1
  38:      1303.72 cm**-1
  39:      1334.58 cm**-1
  40:      1364.99 cm**-1
  41:      1368.01 cm**-1
  42:      1418.40 cm**-1
  43:      1438.05 cm**-1
  44:      1453.54 cm**-1
  45:      1463.72 cm**-1
  46:      1471.65 cm**-1
  47:      1650.10 cm**-1
  48:      1921.73 cm**-1
  49:      3026.72 cm**-1
  50:      3030.40 cm**-1
  51:      3051.13 cm**-1
  52:      3070.22 cm**-1
  53:      3102.81 cm**-1
  54:      3135.19 cm**-1
  55:      3153.91 cm**-1
  56:      3180.02 cm**-1
  57:      3527.68 cm**-1
  58:      3607.14 cm**-1
  59:      3859.55 cm**-1

IR SPECTRUM
-----------

 Mode    freq (cm**-1)   T**2         TX         TY         TZ
-------------------------------------------------------------------
   6:        41.27    1.892411  ( -0.839556   1.063466   0.237902)
   7:        55.39    9.285833  (  0.884718   0.425826   2.884749)
   8:        88.31    0.218125  ( -0.106779  -0.294690   0.346237)
   9:        99.54    0.621318  ( -0.662109   0.232234  -0.359161)
  10:       135.08    0.762305  (  0.087350  -0.398935   0.771703)
  11:       181.60    0.409129  (  0.102420  -0.571477  -0.268428)
  12:       195.24    1.689622  ( -0.905169  -0.111709  -0.926182)
  13:       230.60   28.090752  ( -1.638956   0.755596   4.983337)
  14:       259.65   22.823694  (  1.391999   0.071974  -4.569557)
  15:       304.22   24.126248  (  3.808329   2.346517   2.028974)
  16:       343.75   11.309474  (  1.210843  -0.591203   3.081203)
  17:       396.67   15.015630  (  2.232245   0.369157   3.145860)
  18:       528.59  130.007891  (  3.954348  -1.809131  10.540307)
  19:       531.77    5.989727  (  1.143814  -0.924438   1.956228)
  20:       667.14    9.118564  ( -2.772039   1.116507   0.433329)
  21:       743.26    1.433523  (  0.187097   0.713415  -0.943163)
  22:       753.13    4.474046  ( -1.672387   0.995039   0.828895)
  23:       781.84    3.471939  ( -0.488984   1.745911   0.429684)
  24:       818.55    3.821821  (  0.945117  -1.709242   0.084065)
  25:       842.83    7.215595  (  0.676003   2.592784   0.189963)
  26:       918.24  142.112249  (  9.668157   6.951198  -0.565549)
  27:       960.68    4.848239  (  0.214630   2.081492   0.685249)
  28:       968.97   24.876251  (  2.965360   3.307270  -2.268228)
  29:      1011.08    5.476441  ( -0.528302  -1.370662   1.821709)
  30:      1045.69   17.728274  (  3.271502   2.361168  -1.204339)
  31:      1084.88    2.291877  ( -1.412608  -0.316413  -0.443058)
  32:      1117.96    2.808966  ( -0.242098   1.652365  -0.141577)
  33:      1166.17    5.384713  (  1.467663   1.564817   0.884323)
  34:      1183.80    7.603784  (  1.460567  -1.184241   2.016953)
  35:      1214.71    8.083586  (  1.744279   1.673042  -1.497333)
  36:      1267.49   18.844988  ( -2.717042  -1.169990   3.177074)
  37:      1275.56  125.837619  (  9.468967   2.490996  -5.474598)
  38:      1303.72   50.731491  ( -6.627313  -1.660828   2.012924)
  39:      1334.58    2.712944  ( -0.947094   0.488054  -1.256090)
  40:      1364.99  153.655651  ( 10.686704   2.995442  -5.520628)
  41:      1368.01   10.754882  ( -1.300771  -0.233241   3.001412)
  42:      1418.40   15.547126  ( -2.262362  -1.741598   2.719499)
  43:      1438.05   11.190765  ( -0.185714   2.927140   1.608766)
  44:      1453.54   14.350837  (  2.557608  -1.079196   2.577754)
  45:      1463.72    7.230520  (  1.659494   0.099341  -2.113464)
  46:      1471.65    4.565457  ( -1.870208  -0.729853   0.731502)
  47:      1650.10   27.015539  (  3.750853  -3.520348   0.744167)
  48:      1921.73  267.246924  (  9.839758 -13.021754  -0.927362)
  49:      3026.72    6.013133  (  0.818445  -1.762473   1.495649)
  50:      3030.40   46.772677  (  3.146096  -1.183056  -5.956101)
  51:      3051.13   24.014986  (  4.878163   0.439191  -0.160059)
  52:      3070.22   10.792644  (  2.335067   0.004005  -2.310863)
  53:      3102.81    6.667031  ( -0.192305  -2.325652  -1.105166)
  54:      3135.19    9.159370  (  0.349180  -2.679943  -1.362113)
  55:      3153.91    7.449230  ( -0.381396   2.409482   1.223995)
  56:      3180.02    2.007986  ( -0.671642  -0.604984   1.091273)
  57:      3527.68    6.346666  (  1.309873  -2.146288  -0.156039)
  58:      3607.14    7.123364  ( -0.292480   1.253442   2.338098)
  59:      3859.55   50.026314  ( -4.373243   5.334464   1.563507)

--------------------------
THERMOCHEMISTRY AT 298.15K
--------------------------

Temperature         ... 298.15 K
Pressure            ... 1.00 atm
Total Mass          ... 149.21 AMU

Throughout the following assumptions are being made:
  (1) The electronic state is orbitally nondegenerate
  (2) There are no thermally accessible electronically excited states
  (3) Hindered rotations indicated by low frequency modes are not
      treated as such but are treated as vibrations and this may
      cause some error
  (4) All equations used are the standard statistical mechanics
      equations for an ideal gas
  (5) All vibrations are strictly harmonic

freq.      41.27  E(vib)   ...       0.54
freq.      55.39  E(vib)   ...       0.52
freq.      88.31  E(vib)   ...       0.48
freq.      99.54  E(vib)   ...       0.46
freq.     135.08  E(vib)   ...       0.42
freq.     181.60  E(vib)   ...       0.37
freq.     195.24  E(vib)   ...       0.36
freq.     230.60  E(vib)   ...       0.32
freq.     259.65  E(vib)   ...       0.30
freq.     304.22  E(vib)   ...       0.26
freq.     343.75  E(vib)   ...       0.23
freq.     396.67  E(vib)   ...       0.20
freq.     528.59  E(vib)   ...       0.13
freq.     531.77  E(vib)   ...       0.13
freq.     667.14  E(vib)   ...       0.08
freq.     743.26  E(vib)   ...       0.06
freq.     753.13  E(vib)   ...       0.06
freq.     781.84  E(vib)   ...       0.05
freq.     818.55  E(vib)   ...       0.05
freq.     842.83  E(vib)   ...       0.04
freq.     918.24  E(vib)   ...       0.03
freq.     960.68  E(vib)   ...       0.03
freq.     968.97  E(vib)   ...       0.03
freq.    1011.08  E(vib)   ...       0.02
freq.    1045.69  E(vib)   ...       0.02
freq.    1084.88  E(vib)   ...       0.02
freq.    1117.96  E(vib)   ...       0.01
freq.    1166.17  E(vib)   ...       0.01
freq.    1183.80  E(vib)   ...       0.01
freq.    1214.71  E(vib)   ...       0.01
freq.    1267.49  E(vib)   ...       0.01
freq.    1275.56  E(vib)   ...       0.01
freq.    1303.72  E(vib)   ...       0.01
freq.    1334.58  E(vib)   ...       0.01
freq.    1364.99  E(vib)   ...       0.01
freq.    1368.01  E(vib)   ...       0.01
freq.    1418.40  E(vib)   ...       0.00
freq.    1438.05  E(vib)   ...       0.00
freq.    1453.54  E(vib)   ...       0.00
freq.    1463.72  E(vib)   ...       0.00
freq.    1471.65  E(vib)   ...       0.00
freq.    1650.10  E(vib)   ...       0.00
freq.    1921.73  E(vib)   ...       0.00
freq.    3026.72  E(vib)   ...       0.00
freq.    3030.40  E(vib)   ...       0.00
freq.    3051.13  E(vib)   ...       0.00
freq.    3070.22  E(vib)   ...       0.00
freq.    3102.81  E(vib)   ...       0.00
freq.    3135.19  E(vib)   ...       0.00
freq.    3153.91  E(vib)   ...       0.00
freq.    3180.02  E(vib)   ...       0.00
freq.    3527.68  E(vib)   ...       0.00
freq.    3607.14  E(vib)   ...       0.00
freq.    3859.55  E(vib)   ...       0.00

------------
INNER ENERGY
------------

The inner energy is: U= E(el) + E(ZPE) + E(vib) + E(rot) + E(trans)
    E(el)   - is the total energy from the electronic structure calculation
              = E(kin-el) + E(nuc-el) + E(el-el) + E(nuc-nuc)
    E(ZPE)  - the the zero temperature vibrational energy from the frequency calculation
    E(vib)  - the the finite temperature correction to E(ZPE) due to population
              of excited vibrational states
    E(rot)  - is the rotational thermal energy
    E(trans)- is the translational thermal energy

Summary of contributions to the inner energy U:
Electronic energy                ...   -799.53878134 Eh
Zero point energy                ...      0.16664091 Eh     104.57 kcal/mol
Thermal vibrational correction   ...      0.00842701 Eh       5.29 kcal/mol
Thermal rotational correction    ...      0.00141627 Eh       0.89 kcal/mol
Thermal translational correction ...      0.00141627 Eh       0.89 kcal/mol
-----------------------------------------------------------------------
Total thermal energy                   -799.36088088 Eh

Summary of corrections to the electronic energy:
(perhaps to be used in another calculation)
Total thermal correction                  0.01125955 Eh       7.07 kcal/mol
Non-thermal (ZPE) correction              0.16664091 Eh     104.57 kcal/mol
-----------------------------------------------------------------------
Total correction                          0.17790046 Eh     111.63 kcal/mol

--------
ENTHALPY
--------

The enthalpy is H = U + kB*T
                kB is Boltzmann's constant
Total free energy                 ...   -799.36088088 Eh
Thermal Enthalpy correction       ...      0.00094421 Eh       0.59 kcal/mol
-----------------------------------------------------------------------
Total Enthalpy                    ...   -799.35993667 Eh

Vibrational entropy computed according to the QRRHO of S. Grimme
Chem.Eur.J. 2012 18 9955

check

-------
ENTROPY
-------

The entropy contributions are T*S = T*(S(el)+S(vib)+S(rot)+S(trans)
     S(el)   - electronic entropy
     S(vib)  - vibrational entropy
     S(rot)  - rotational entropy
     S(trans)- translational entropy
The entropies will be listed as mutliplied by the temperature to get
units of energy

Electronic entropy                ...      0.00000000 Eh      0.00 kcal/mol
Vibrational entropy               ...      0.01509030 Eh      9.47 kcal/mol
Rotational entropy                ...      0.01336933 Eh      8.39 kcal/mol
Translational entropy             ...      0.01943799 Eh     12.20 kcal/mol
-----------------------------------------------------------------------
Final entropy term                ...      0.04789762 Eh     30.06 kcal/mol

CAUTION: The rotational entropy is not quite correctly treated here
         because it includes a symmetry number that is not yet correctly
         implemented in ORCA!
For a nonlinear molecule the correct rotational entropy is:
    S(rot) = R*(ln(qrot/sn)+1.5)
    R    = 8.31441 J/mol/K = 1.987191683e-3 kcal/mol/K
    qrot = 944418.5782983
    sn is the rotational symmetry number. We have assumed 3 here
       if it is different for your molecule then you should correct
       the printed rotational entropy by manually evaluating the equation
       as given above

For convenience we print out the resulting values for sn=1 - 12:
 sn= 1  qrot/sn=  944418.5783 T*S(rot)=     9.04 kcal/mol T*S(tot)=    30.71 kcal/mol
 sn= 2  qrot/sn=  472209.2891 T*S(rot)=     8.63 kcal/mol T*S(tot)=    30.30 kcal/mol
 sn= 3  qrot/sn=  314806.1928 T*S(rot)=     8.39 kcal/mol T*S(tot)=    30.06 kcal/mol
 sn= 4  qrot/sn=  236104.6446 T*S(rot)=     8.22 kcal/mol T*S(tot)=    29.89 kcal/mol
 sn= 5  qrot/sn=  188883.7157 T*S(rot)=     8.09 kcal/mol T*S(tot)=    29.75 kcal/mol
 sn= 6  qrot/sn=  157403.0964 T*S(rot)=     7.98 kcal/mol T*S(tot)=    29.65 kcal/mol
 sn= 7  qrot/sn=  134916.9398 T*S(rot)=     7.89 kcal/mol T*S(tot)=    29.55 kcal/mol
 sn= 8  qrot/sn=  118052.3223 T*S(rot)=     7.81 kcal/mol T*S(tot)=    29.48 kcal/mol

                             ****ORCA TERMINATED NORMALLY****
TOTAL RUN TIME: 0 days 1 hours 21 minutes 18 seconds 612 msec
