                         Program Version 4.0.0 -  RELEASE  -
|  1> ! PBE0
|  2> ! opt anfreq
|  3> * xyzfile 0 1 isoleucine.xyz **                         ****END OF INPUT****
 Total Charge           Charge          ....    0
 Multiplicity           Mult            ....    1
 Number of Electrons    NEL             ....   72
FINAL SINGLE POINT ENERGY      -440.842518324156
FINAL SINGLE POINT ENERGY      -440.850795337107
FINAL SINGLE POINT ENERGY      -440.852870214128
FINAL SINGLE POINT ENERGY      -440.854255293112
FINAL SINGLE POINT ENERGY      -440.854711992545
FINAL SINGLE POINT ENERGY      -440.855006377817
FINAL SINGLE POINT ENERGY      -440.855183779473
FINAL SINGLE POINT ENERGY      -440.855224785707
FINAL SINGLE POINT ENERGY      -440.855236605272
FINAL SINGLE POINT ENERGY      -440.855238383252
                    ***********************HURRAY********************

CARTESIAN COORDINATES (ANGSTROEM)
---------------------------------
  C      0.786922   -0.010375    0.008034
  C      2.307869    0.041975    0.005138
  C      2.915395    0.918405    1.105050
  C      2.495136    0.478210    2.503077
  C      4.460386    0.994564    1.028560
  C      4.912468    1.398311   -0.379369
  O      5.051639    2.543979   -0.704827
  O      5.147125    0.406770   -1.254336
  N      4.965464    1.920075    2.017926
  H      0.412501   -0.582288   -0.854110
  H      0.355316    1.001409   -0.054291
  H      0.388082   -0.485845    0.915992
  H      2.639392    0.400769   -0.982976
  H      2.703959   -0.988063    0.107422
  H      2.559408    1.953900    0.941046
  H      2.723913   -0.589928    2.661217
  H      1.416586    0.618070    2.665559
  H      3.040579    1.059625    3.257401
  H      4.857596   -0.013590    1.258843
  H      4.980363   -0.445977   -0.834529
  H      4.804026    2.866223    1.668118
  H      5.976215    1.830760    2.097659

 Multiplicity           Mult            ....    1
 Number of Electrons    NEL             ....   72
 Basis Dimension        Dim             ....  191

ORBITAL ENERGIES
----------------

  NO   OCC          E(Eh)            E(eV)
   0   2.0000     -19.263204      -524.1784
   1   2.0000     -19.196989      -522.3766
   2   2.0000     -14.379622      -391.2894
   3   2.0000     -10.358807      -281.8775
   4   2.0000     -10.281995      -279.7873
   5   2.0000     -10.249525      -278.9038
   6   2.0000     -10.242268      -278.7063
   7   2.0000     -10.231367      -278.4097
   8   2.0000     -10.222774      -278.1758
   9   2.0000      -1.128776       -30.7156
  10   2.0000      -1.042497       -28.3678
  11   2.0000      -0.921548       -25.0766
  12   2.0000      -0.830769       -22.6064
  13   2.0000      -0.751464       -20.4484
  14   2.0000      -0.712058       -19.3761
  15   2.0000      -0.652842       -17.7647
  16   2.0000      -0.635600       -17.2955
  17   2.0000      -0.590671       -16.0730
  18   2.0000      -0.554582       -15.0909
  19   2.0000      -0.516152       -14.0452
  20   2.0000      -0.487318       -13.2606
  21   2.0000      -0.482352       -13.1255
  22   2.0000      -0.466383       -12.6909
  23   2.0000      -0.447358       -12.1732
  24   2.0000      -0.440192       -11.9782
  25   2.0000      -0.421303       -11.4642
  26   2.0000      -0.405532       -11.0351
  27   2.0000      -0.398426       -10.8417
  28   2.0000      -0.393204       -10.6996
  29   2.0000      -0.377138       -10.2625
  30   2.0000      -0.353793        -9.6272
  31   2.0000      -0.342454        -9.3186
  32   2.0000      -0.340555        -9.2670
  33   2.0000      -0.332928        -9.0594
  34   2.0000      -0.296390        -8.0652
  35   2.0000      -0.260505        -7.0887
  36   0.0000       0.011494         0.3128
  37   0.0000       0.037972         1.0333
  38   0.0000       0.067716         1.8426
  39   0.0000       0.078681         2.1410
  40   0.0000       0.094232         2.5642

MULLIKEN ATOMIC CHARGES
-----------------------
   0 C :   -0.057951
   1 C :   -0.099873
   2 C :   -0.163515
   3 C :   -0.001672
   4 C :   -0.070878
   5 C :    0.191538
   6 O :   -0.227463
   7 O :   -0.177407
   8 N :   -0.203894
   9 H :    0.044128
  10 H :    0.042867
  11 H :    0.047583
  12 H :    0.056608
  13 H :    0.019506
  14 H :    0.040472
  15 H :    0.023139
  16 H :    0.045508
  17 H :    0.054412
  18 H :    0.020639
  19 H :    0.184469
  20 H :    0.120947
  21 H :    0.110837
Sum of atomic charges:    0.0000000

LOEWDIN ATOMIC CHARGES
----------------------
   0 C :   -0.067726
   1 C :   -0.057135
   2 C :   -0.043011
   3 C :   -0.065185
   4 C :   -0.037213
   5 C :    0.062656
   6 O :   -0.166174
   7 O :   -0.025808
   8 N :   -0.088130
   9 H :    0.032037
  10 H :    0.031064
  11 H :    0.028164
  12 H :    0.027964
  13 H :    0.017659
  14 H :    0.032051
  15 H :    0.024327
  16 H :    0.028489
  17 H :    0.032997
  18 H :    0.021423
  19 H :    0.087692
  20 H :    0.061783
  21 H :    0.062078

  Mayer bond orders larger than 0.1
B(  0-C ,  1-C ) :   1.0995 B(  0-C ,  9-H ) :   0.9674 B(  0-C , 10-H ) :   0.9696
B(  0-C , 11-H ) :   0.9680 B(  1-C ,  2-C ) :   1.0354 B(  1-C , 12-H ) :   0.9344
B(  1-C , 13-H ) :   0.9382 B(  2-C ,  3-C ) :   1.0679 B(  2-C ,  4-C ) :   0.9935
B(  2-C , 14-H ) :   0.9128 B(  3-C , 15-H ) :   0.9611 B(  3-C , 16-H ) :   0.9665
B(  3-C , 17-H ) :   0.9500 B(  4-C ,  5-C ) :   0.9037 B(  4-C ,  8-N ) :   1.1151
B(  4-C , 18-H ) :   0.9083 B(  5-C ,  6-O ) :   2.1231 B(  5-C ,  7-O ) :   1.1660
B(  7-O , 19-H ) :   0.9530 B(  8-N , 20-H ) :   0.9563 B(  8-N , 21-H ) :   0.9677

FINAL SINGLE POINT ENERGY      -440.855238757264

DIPOLE MOMENT
-------------
                                X             Y             Z
Electronic contribution:     10.24700       4.46056      -5.82143
Nuclear contribution   :    -10.42980      -5.54224       6.33205
                        -----------------------------------------
Total Dipole Moment    :     -0.18280      -1.08168       0.51062
                        -----------------------------------------
Magnitude (a.u.)       :      1.21004
Magnitude (Debye)      :      3.07566

VIBRATIONAL FREQUENCIES
-----------------------

   0:         0.00 cm**-1
   1:         0.00 cm**-1
   2:         0.00 cm**-1
   3:         0.00 cm**-1
   4:         0.00 cm**-1
   5:         0.00 cm**-1
   6:        57.63 cm**-1
   7:        65.23 cm**-1
   8:       106.07 cm**-1
   9:       162.97 cm**-1
  10:       218.79 cm**-1
  11:       221.20 cm**-1
  12:       261.30 cm**-1
  13:       275.97 cm**-1
  14:       297.45 cm**-1
  15:       331.46 cm**-1
  16:       370.57 cm**-1
  17:       414.26 cm**-1
  18:       434.28 cm**-1
  19:       530.24 cm**-1
  20:       544.33 cm**-1
  21:       696.51 cm**-1
  22:       748.89 cm**-1
  23:       789.52 cm**-1
  24:       854.59 cm**-1
  25:       874.97 cm**-1
  26:       906.60 cm**-1
  27:       967.16 cm**-1
  28:       983.88 cm**-1
  29:      1020.87 cm**-1
  30:      1057.05 cm**-1
  31:      1083.86 cm**-1
  32:      1151.66 cm**-1
  33:      1158.55 cm**-1
  34:      1175.37 cm**-1
  35:      1182.93 cm**-1
  36:      1225.37 cm**-1
  37:      1267.44 cm**-1
  38:      1291.99 cm**-1
  39:      1332.65 cm**-1
  40:      1342.74 cm**-1
  41:      1363.91 cm**-1
  42:      1378.46 cm**-1
  43:      1389.22 cm**-1
  44:      1405.30 cm**-1
  45:      1416.51 cm**-1
  46:      1459.35 cm**-1
  47:      1461.13 cm**-1
  48:      1470.79 cm**-1
  49:      1480.52 cm**-1
  50:      1484.11 cm**-1
  51:      1645.28 cm**-1
  52:      1914.43 cm**-1
  53:      3012.98 cm**-1
  54:      3020.33 cm**-1
  55:      3038.87 cm**-1
  56:      3049.99 cm**-1
  57:      3059.34 cm**-1
  58:      3100.01 cm**-1
  59:      3142.87 cm**-1
  60:      3149.11 cm**-1
  61:      3161.00 cm**-1
  62:      3182.97 cm**-1
  63:      3523.08 cm**-1
  64:      3609.73 cm**-1
  65:      3861.46 cm**-1

IR SPECTRUM
-----------

 Mode    freq (cm**-1)   T**2         TX         TY         TZ
-------------------------------------------------------------------
   6:        57.63    5.703433  ( -2.273258  -0.137165  -0.718970)
   7:        65.23    2.337990  (  1.312207  -0.496420  -0.608005)
   8:       106.07    0.195353  ( -0.342658   0.143242  -0.239625)
   9:       162.97    0.749912  ( -0.729282  -0.284681  -0.370158)
  10:       218.79    0.226374  (  0.231971  -0.055368   0.411701)
  11:       221.20    1.218650  (  0.919902   0.427037  -0.435971)
  12:       261.30   44.914064  (  5.080225  -4.319792  -0.666911)
  13:       275.97    7.891865  ( -2.502525   0.204615  -1.259907)
  14:       297.45   12.995784  ( -0.568188  -1.138060  -3.373094)
  15:       331.46    5.624276  (  2.104795   0.824006   0.717724)
  16:       370.57    9.907080  ( -2.076669  -0.202291  -2.356609)
  17:       414.26    7.476036  ( -2.411211   0.034713  -1.288757)
  18:       434.28    4.742634  ( -2.093395   0.589098   0.115306)
  19:       530.24  111.308838  (-10.426054   0.753452  -1.427776)
  20:       544.33    2.405386  ( -1.549106  -0.064201  -0.039185)
  21:       696.51   16.018037  ( -0.750619  -3.882011  -0.620161)
  22:       748.89    1.978200  ( -1.044173  -0.652008  -0.680284)
  23:       789.52    3.746169  (  0.547460  -0.546812   1.774106)
  24:       854.59    0.287196  (  0.104738  -0.460627   0.253079)
  25:       874.97   45.092597  (  0.064356   0.078918   6.714330)
  26:       906.60   60.443322  (  1.621914   2.467291   7.192023)
  27:       967.16    7.369196  ( -0.270076  -2.176755  -1.599372)
  28:       983.88   60.772726  ( -1.081506   2.707911   7.229819)
  29:      1020.87   12.932237  ( -1.550544   0.817027   3.140146)
  30:      1057.05    8.442933  ( -2.420670  -1.553267   0.413097)
  31:      1083.86    2.113041  ( -0.442269  -0.726588  -1.178774)
  32:      1151.66    0.910456  ( -0.895540  -0.189883  -0.269087)
  33:      1158.55   10.304264  (  2.934318   0.564079  -1.172969)
  34:      1175.37    2.761836  ( -0.663369   0.178863  -1.513204)
  35:      1182.93    3.416476  ( -1.418517   1.116753  -0.396419)
  36:      1225.37    2.063435  ( -1.346781  -0.365610   0.340506)
  37:      1267.44  101.198120  (  1.980877  -6.887671  -7.059337)
  38:      1291.99    1.736106  (  1.164635  -0.577998   0.213658)
  39:      1332.65    1.316279  ( -0.420809   0.151507   1.056525)
  40:      1342.74  147.914363  ( -3.257542   7.232198   9.219441)
  41:      1363.91  104.472091  (  3.075120  -6.826637  -6.957927)
  42:      1378.46   15.223373  (  0.730442  -2.349392  -3.028231)
  43:      1389.22   14.119235  (  2.077106   0.301511  -3.116722)
  44:      1405.30    2.462985  (  0.902826  -0.925131   0.889956)
  45:      1416.51   34.628562  ( -2.217544   2.308338   4.937878)
  46:      1459.35    3.837106  ( -0.079914  -1.935754  -0.289096)
  47:      1461.13    4.921897  (  0.457027  -1.227530  -1.790585)
  48:      1470.79    7.955863  ( -0.538874   1.623722  -2.242544)
  49:      1480.52    9.263403  ( -1.138762   2.420856   1.451233)
  50:      1484.11    6.257575  ( -2.433189   0.351928   0.461859)
  51:      1645.28   30.386506  (  3.289366   4.391499  -0.530391)
  52:      1914.43  243.240981  (  4.006202  14.453269  -4.277190)
  53:      3012.98   22.291422  (  3.215119  -3.070275  -1.589920)
  54:      3020.33    9.373780  ( -1.067369   2.842039   0.396636)
  55:      3038.87   29.035049  ( -2.599255   4.610471   1.011175)
  56:      3049.99   31.733996  (  0.698552   4.958406  -2.580742)
  57:      3059.34   20.784881  (  4.541202   0.267163   0.301639)
  58:      3100.01   10.729382  (  0.302720   2.101443  -2.494329)
  59:      3142.87   22.321599  ( -3.530256   3.139733   0.031130)
  60:      3149.11   17.946185  (  0.630917   4.081040   0.945115)
  61:      3161.00   19.323536  (  0.420439   0.733905  -4.313717)
  62:      3182.97    2.163599  ( -1.068560  -0.741413  -0.687084)
  63:      3523.08    8.529116  ( -0.968627  -2.436930   1.285399)
  64:      3609.73    8.082036  ( -1.599764   2.072607  -1.107743)
  65:      3861.46   49.972448  ( -0.869643  -6.907776   1.224252)

--------------------------
THERMOCHEMISTRY AT 298.15K
--------------------------

Temperature         ... 298.15 K
Pressure            ... 1.00 atm
Total Mass          ... 131.17 AMU

Throughout the following assumptions are being made:
  (1) The electronic state is orbitally nondegenerate
  (2) There are no thermally accessible electronically excited states
  (3) Hindered rotations indicated by low frequency modes are not
      treated as such but are treated as vibrations and this may
      cause some error
  (4) All equations used are the standard statistical mechanics
      equations for an ideal gas
  (5) All vibrations are strictly harmonic

freq.      57.63  E(vib)   ...       0.51
freq.      65.23  E(vib)   ...       0.50
freq.     106.07  E(vib)   ...       0.45
freq.     162.97  E(vib)   ...       0.39
freq.     218.79  E(vib)   ...       0.33
freq.     221.20  E(vib)   ...       0.33
freq.     261.30  E(vib)   ...       0.30
freq.     275.97  E(vib)   ...       0.28
freq.     297.45  E(vib)   ...       0.27
freq.     331.46  E(vib)   ...       0.24
freq.     370.57  E(vib)   ...       0.21
freq.     414.26  E(vib)   ...       0.19
freq.     434.28  E(vib)   ...       0.17
freq.     530.24  E(vib)   ...       0.13
freq.     544.33  E(vib)   ...       0.12
freq.     696.51  E(vib)   ...       0.07
freq.     748.89  E(vib)   ...       0.06
freq.     789.52  E(vib)   ...       0.05
freq.     854.59  E(vib)   ...       0.04
freq.     874.97  E(vib)   ...       0.04
freq.     906.60  E(vib)   ...       0.03
freq.     967.16  E(vib)   ...       0.03
freq.     983.88  E(vib)   ...       0.02
freq.    1020.87  E(vib)   ...       0.02
freq.    1057.05  E(vib)   ...       0.02
freq.    1083.86  E(vib)   ...       0.02
freq.    1151.66  E(vib)   ...       0.01
freq.    1158.55  E(vib)   ...       0.01
freq.    1175.37  E(vib)   ...       0.01
freq.    1182.93  E(vib)   ...       0.01
freq.    1225.37  E(vib)   ...       0.01
freq.    1267.44  E(vib)   ...       0.01
freq.    1291.99  E(vib)   ...       0.01
freq.    1332.65  E(vib)   ...       0.01
freq.    1342.74  E(vib)   ...       0.01
freq.    1363.91  E(vib)   ...       0.01
freq.    1378.46  E(vib)   ...       0.01
freq.    1389.22  E(vib)   ...       0.00
freq.    1405.30  E(vib)   ...       0.00
freq.    1416.51  E(vib)   ...       0.00
freq.    1459.35  E(vib)   ...       0.00
freq.    1461.13  E(vib)   ...       0.00
freq.    1470.79  E(vib)   ...       0.00
freq.    1480.52  E(vib)   ...       0.00
freq.    1484.11  E(vib)   ...       0.00
freq.    1645.28  E(vib)   ...       0.00
freq.    1914.43  E(vib)   ...       0.00
freq.    3012.98  E(vib)   ...       0.00
freq.    3020.33  E(vib)   ...       0.00
freq.    3038.87  E(vib)   ...       0.00
freq.    3049.99  E(vib)   ...       0.00
freq.    3059.34  E(vib)   ...       0.00
freq.    3100.01  E(vib)   ...       0.00
freq.    3142.87  E(vib)   ...       0.00
freq.    3149.11  E(vib)   ...       0.00
freq.    3161.00  E(vib)   ...       0.00
freq.    3182.97  E(vib)   ...       0.00
freq.    3523.08  E(vib)   ...       0.00
freq.    3609.73  E(vib)   ...       0.00
freq.    3861.46  E(vib)   ...       0.00

------------
INNER ENERGY
------------

The inner energy is: U= E(el) + E(ZPE) + E(vib) + E(rot) + E(trans)
    E(el)   - is the total energy from the electronic structure calculation
              = E(kin-el) + E(nuc-el) + E(el-el) + E(nuc-nuc)
    E(ZPE)  - the the zero temperature vibrational energy from the frequency calculation
    E(vib)  - the the finite temperature correction to E(ZPE) due to population
              of excited vibrational states
    E(rot)  - is the rotational thermal energy
    E(trans)- is the translational thermal energy

Summary of contributions to the inner energy U:
Electronic energy                ...   -440.85523876 Eh
Zero point energy                ...      0.19406587 Eh     121.78 kcal/mol
Thermal vibrational correction   ...      0.00790521 Eh       4.96 kcal/mol
Thermal rotational correction    ...      0.00141627 Eh       0.89 kcal/mol
Thermal translational correction ...      0.00141627 Eh       0.89 kcal/mol
-----------------------------------------------------------------------
Total thermal energy                   -440.65043513 Eh

Summary of corrections to the electronic energy:
(perhaps to be used in another calculation)
Total thermal correction                  0.01073775 Eh       6.74 kcal/mol
Non-thermal (ZPE) correction              0.19406587 Eh     121.78 kcal/mol
-----------------------------------------------------------------------
Total correction                          0.20480362 Eh     128.52 kcal/mol

--------
ENTHALPY
--------

The enthalpy is H = U + kB*T
                kB is Boltzmann's constant
Total free energy                 ...   -440.65043513 Eh
Thermal Enthalpy correction       ...      0.00094421 Eh       0.59 kcal/mol
-----------------------------------------------------------------------
Total Enthalpy                    ...   -440.64949092 Eh

Vibrational entropy computed according to the QRRHO of S. Grimme
Chem.Eur.J. 2012 18 9955

check

-------
ENTROPY
-------

The entropy contributions are T*S = T*(S(el)+S(vib)+S(rot)+S(trans)
     S(el)   - electronic entropy
     S(vib)  - vibrational entropy
     S(rot)  - rotational entropy
     S(trans)- translational entropy
The entropies will be listed as mutliplied by the temperature to get
units of energy

Electronic entropy                ...      0.00000000 Eh      0.00 kcal/mol
Vibrational entropy               ...      0.01356322 Eh      8.51 kcal/mol
Rotational entropy                ...      0.01292099 Eh      8.11 kcal/mol
Translational entropy             ...      0.01925556 Eh     12.08 kcal/mol
-----------------------------------------------------------------------
Final entropy term                ...      0.04573977 Eh     28.70 kcal/mol

CAUTION: The rotational entropy is not quite correctly treated here
         because it includes a symmetry number that is not yet correctly
         implemented in ORCA!
For a nonlinear molecule the correct rotational entropy is:
    S(rot) = R*(ln(qrot/sn)+1.5)
    R    = 8.31441 J/mol/K = 1.987191683e-3 kcal/mol/K
    qrot = 587408.6171979
    sn is the rotational symmetry number. We have assumed 3 here
       if it is different for your molecule then you should correct
       the printed rotational entropy by manually evaluating the equation
       as given above

For convenience we print out the resulting values for sn=1 - 12:
 sn= 1  qrot/sn=  587408.6172 T*S(rot)=     8.76 kcal/mol T*S(tot)=    29.35 kcal/mol
 sn= 2  qrot/sn=  293704.3086 T*S(rot)=     8.35 kcal/mol T*S(tot)=    28.94 kcal/mol

                             ****ORCA TERMINATED NORMALLY****
TOTAL RUN TIME: 0 days 1 hours 46 minutes 13 seconds 25 msec
