                         Program Version 4.0.0 -  RELEASE  -
|  1> ! PBE0
|  2> ! opt anfreq
|  3> * xyzfile 0 1 alanine.xyz **                         ****END OF INPUT****
 Total Charge           Charge          ....    0
 Multiplicity           Mult            ....    1
 Number of Electrons    NEL             ....   48
FINAL SINGLE POINT ENERGY      -323.134896457964
FINAL SINGLE POINT ENERGY      -323.141282843798
FINAL SINGLE POINT ENERGY      -323.142730634342
FINAL SINGLE POINT ENERGY      -323.142836926815
FINAL SINGLE POINT ENERGY      -323.143239266360
FINAL SINGLE POINT ENERGY      -323.143248562178
FINAL SINGLE POINT ENERGY      -323.143251070267
                    ***********************HURRAY********************

CARTESIAN COORDINATES (ANGSTROEM)
---------------------------------
  C      1.077981    0.018029    0.010991
  C      2.605460    0.051137   -0.017003
  C      3.130503   -0.223430   -1.432580
  O      3.778819    0.564699   -2.059161
  O      2.818863   -1.422929   -1.953311
  N      3.087953    1.292943    0.529504
  H      0.661657   -0.948116   -0.313904
  H      0.662729    0.796266   -0.648599
  H      0.730026    0.216202    1.033778
  H      2.978574   -0.773680    0.621324
  H      2.302956   -1.935622   -1.319360
  H      2.828198    2.049669   -0.103843
  H      4.106530    1.293482    0.521795

 Multiplicity           Mult            ....    1
 Number of Electrons    NEL             ....   48
 Basis Dimension        Dim             ....  119

ORBITAL ENERGIES
----------------

  NO   OCC          E(Eh)            E(eV)
   0   2.0000     -19.261990      -524.1454
   1   2.0000     -19.197216      -522.3828
   2   2.0000     -14.377767      -391.2389
   3   2.0000     -10.357973      -281.8548
   4   2.0000     -10.286176      -279.9011
   5   2.0000     -10.250755      -278.9372
   6   2.0000      -1.128155       -30.6987
   7   2.0000      -1.042551       -28.3693
   8   2.0000      -0.920438       -25.0464
   9   2.0000      -0.774788       -21.0831
  10   2.0000      -0.673723       -18.3329
  11   2.0000      -0.633230       -17.2311
  12   2.0000      -0.555030       -15.1031
  13   2.0000      -0.526266       -14.3204
  14   2.0000      -0.480340       -13.0707
  15   2.0000      -0.465120       -12.6566
  16   2.0000      -0.448208       -12.1964
  17   2.0000      -0.426346       -11.6015
  18   2.0000      -0.406715       -11.0673
  19   2.0000      -0.404503       -11.0071
  20   2.0000      -0.378525       -10.3002
  21   2.0000      -0.338357        -9.2072
  22   2.0000      -0.294432        -8.0119
  23   2.0000      -0.263275        -7.1641
  24   0.0000       0.013169         0.3583
  25   0.0000       0.034834         0.9479
  26   0.0000       0.082215         2.2372
  27   0.0000       0.094700         2.5769
  28   0.0000       0.121618         3.3094

MULLIKEN ATOMIC CHARGES
-----------------------
   0 C :   -0.035985
   1 C :   -0.149366
   2 C :    0.181964
   3 O :   -0.220985
   4 O :   -0.181105
   5 N :   -0.212713
   6 H :    0.027615
   7 H :    0.053988
   8 H :    0.069884
   9 H :    0.055694
  10 H :    0.184019
  11 H :    0.112556
  12 H :    0.114436
Sum of atomic charges:   -0.0000000

LOEWDIN ATOMIC CHARGES
----------------------
   0 C :   -0.062816
   1 C :   -0.053900
   2 C :    0.059068
   3 O :   -0.164637
   4 O :   -0.032005
   5 N :   -0.096397
   6 H :    0.023249
   7 H :    0.036396
   8 H :    0.041992
   9 H :    0.035306
  10 H :    0.089434
  11 H :    0.061269
  12 H :    0.063042

  Mayer bond orders larger than 0.1
B(  0-C ,  1-C ) :   1.0472 B(  0-C ,  6-H ) :   0.9631 B(  0-C ,  7-H ) :   0.9635
B(  0-C ,  8-H ) :   0.9647 B(  1-C ,  2-C ) :   0.8888 B(  1-C ,  5-N ) :   1.1120
B(  1-C ,  9-H ) :   0.9156 B(  2-C ,  3-O ) :   2.1509 B(  2-C ,  4-O ) :   1.1804
B(  4-O , 10-H ) :   0.9583 B(  5-N , 11-H ) :   0.9667 B(  5-N , 12-H ) :   0.9669

FINAL SINGLE POINT ENERGY      -323.143251771021

DIPOLE MOMENT
-------------
                                X             Y             Z
Electronic contribution:      3.95809      -1.04003      -4.46482
Nuclear contribution   :     -4.65546       0.41008       5.25133
                        -----------------------------------------
Total Dipole Moment    :     -0.69738      -0.62995       0.78650
                        -----------------------------------------
Magnitude (a.u.)       :      1.22546
Magnitude (Debye)      :      3.11487

VIBRATIONAL FREQUENCIES
-----------------------

   0:         0.00 cm**-1
   1:         0.00 cm**-1
   2:         0.00 cm**-1
   3:         0.00 cm**-1
   4:         0.00 cm**-1
   5:         0.00 cm**-1
   6:        44.80 cm**-1
   7:       205.61 cm**-1
   8:       219.70 cm**-1
   9:       256.05 cm**-1
  10:       315.95 cm**-1
  11:       395.57 cm**-1
  12:       488.88 cm**-1
  13:       506.59 cm**-1
  14:       639.14 cm**-1
  15:       749.38 cm**-1
  16:       819.40 cm**-1
  17:       920.93 cm**-1
  18:       941.72 cm**-1
  19:      1027.15 cm**-1
  20:      1078.48 cm**-1
  21:      1171.92 cm**-1
  22:      1201.88 cm**-1
  23:      1275.34 cm**-1
  24:      1289.30 cm**-1
  25:      1365.40 cm**-1
  26:      1383.18 cm**-1
  27:      1417.59 cm**-1
  28:      1454.81 cm**-1
  29:      1475.10 cm**-1
  30:      1653.43 cm**-1
  31:      1924.01 cm**-1
  32:      3029.69 cm**-1
  33:      3059.58 cm**-1
  34:      3149.36 cm**-1
  35:      3176.97 cm**-1
  36:      3533.20 cm**-1
  37:      3608.61 cm**-1
  38:      3861.83 cm**-1

IR SPECTRUM
-----------

 Mode    freq (cm**-1)   T**2         TX         TY         TZ
-------------------------------------------------------------------
   6:        44.80   12.556003  (  3.033286  -1.505000   1.044104)
   7:       205.61   48.428224  ( -5.625819   3.330031  -2.385222)
   8:       219.70    0.778256  ( -0.761429   0.440112  -0.069160)
   9:       256.05   14.146349  (  1.352945   2.682706   2.262516)
  10:       315.95   16.540084  ( -0.810622   3.398205   2.082109)
  11:       395.57   15.812465  ( -3.396873   0.290776  -2.046745)
  12:       488.88   76.311848  (  7.274084  -4.008094   2.708272)
  13:       506.59   16.836356  (  3.736746  -1.473164   0.838375)
  14:       639.14   10.168756  (  2.320696   2.158498  -0.352154)
  15:       749.38    2.119901  (  0.741831   1.141542   0.516208)
  16:       819.40   10.740012  (  1.126537   1.463638  -2.707155)
  17:       920.93  151.885624  (  0.137129   7.604345   9.697461)
  18:       941.72    5.548972  ( -0.441644  -1.782202  -1.475696)
  19:      1027.15    1.260777  (  0.243553   0.593813  -0.921328)
  20:      1078.48   43.113688  ( -0.888977   3.890529   5.214134)
  21:      1171.92    3.078351  ( -0.019765   0.209674   1.741837)
  22:      1201.88    9.509650  ( -1.650460  -2.495408  -0.747376)
  23:      1275.34  180.931717  ( -2.156077 -11.586202  -6.484056)
  24:      1289.30   22.381463  (  0.077009  -3.899936  -2.676945)
  25:      1365.40  189.046044  (  1.595647  12.080782   6.368254)
  26:      1383.18    2.796859  (  1.528665  -0.499029  -0.459362)
  27:      1417.59    9.367881  (  1.528899  -2.063440  -1.665102)
  28:      1454.81   13.307136  (  0.029552   0.242363   3.639715)
  29:      1475.10   18.958848  (  0.477654   4.181795   1.115027)
  30:      1653.43   24.287342  (  2.594639   3.533561  -2.251475)
  31:      1924.01  258.706506  (  9.396744  10.126137  -8.238267)
  32:      3029.69   18.924527  (  1.501894  -3.902447   1.199897)
  33:      3059.58   12.302535  (  3.278282   0.971865   0.781589)
  34:      3149.36   18.919822  (  0.139263  -4.346387  -0.096675)
  35:      3176.97    6.219518  ( -0.108473   0.556196   2.428662)
  36:      3533.20    4.447297  ( -1.158590  -1.282335   1.208546)
  37:      3608.61    6.878349  ( -2.214959   1.034996  -0.949257)
  38:      3861.83   54.656444  ( -4.019671  -5.105744   3.525629)

--------------------------
THERMOCHEMISTRY AT 298.15K
--------------------------

Temperature         ... 298.15 K
Pressure            ... 1.00 atm
Total Mass          ... 89.09 AMU

Throughout the following assumptions are being made:
  (1) The electronic state is orbitally nondegenerate
  (2) There are no thermally accessible electronically excited states
  (3) Hindered rotations indicated by low frequency modes are not
      treated as such but are treated as vibrations and this may
      cause some error
  (4) All equations used are the standard statistical mechanics
      equations for an ideal gas
  (5) All vibrations are strictly harmonic

freq.      44.80  E(vib)   ...       0.53
freq.     205.61  E(vib)   ...       0.35
freq.     219.70  E(vib)   ...       0.33
freq.     256.05  E(vib)   ...       0.30
freq.     315.95  E(vib)   ...       0.25
freq.     395.57  E(vib)   ...       0.20
freq.     488.88  E(vib)   ...       0.15
freq.     506.59  E(vib)   ...       0.14
freq.     639.14  E(vib)   ...       0.09
freq.     749.38  E(vib)   ...       0.06
freq.     819.40  E(vib)   ...       0.05
freq.     920.93  E(vib)   ...       0.03
freq.     941.72  E(vib)   ...       0.03
freq.    1027.15  E(vib)   ...       0.02
freq.    1078.48  E(vib)   ...       0.02
freq.    1171.92  E(vib)   ...       0.01
freq.    1201.88  E(vib)   ...       0.01
freq.    1275.34  E(vib)   ...       0.01
freq.    1289.30  E(vib)   ...       0.01
freq.    1365.40  E(vib)   ...       0.01
freq.    1383.18  E(vib)   ...       0.00
freq.    1417.59  E(vib)   ...       0.00
freq.    1454.81  E(vib)   ...       0.00
freq.    1475.10  E(vib)   ...       0.00
freq.    1653.43  E(vib)   ...       0.00
freq.    1924.01  E(vib)   ...       0.00
freq.    3029.69  E(vib)   ...       0.00
freq.    3059.58  E(vib)   ...       0.00
freq.    3149.36  E(vib)   ...       0.00
freq.    3176.97  E(vib)   ...       0.00
freq.    3533.20  E(vib)   ...       0.00
freq.    3608.61  E(vib)   ...       0.00
freq.    3861.83  E(vib)   ...       0.00

------------
INNER ENERGY
------------

The inner energy is: U= E(el) + E(ZPE) + E(vib) + E(rot) + E(trans)
    E(el)   - is the total energy from the electronic structure calculation
              = E(kin-el) + E(nuc-el) + E(el-el) + E(nuc-nuc)
    E(ZPE)  - the the zero temperature vibrational energy from the frequency calculation
    E(vib)  - the the finite temperature correction to E(ZPE) due to population
              of excited vibrational states
    E(rot)  - is the rotational thermal energy
    E(trans)- is the translational thermal energy

Summary of contributions to the inner energy U:
Electronic energy                ...   -323.14325177 Eh
Zero point energy                ...      0.10853315 Eh      68.11 kcal/mol
Thermal vibrational correction   ...      0.00413348 Eh       2.59 kcal/mol
Thermal rotational correction    ...      0.00141627 Eh       0.89 kcal/mol
Thermal translational correction ...      0.00141627 Eh       0.89 kcal/mol
-----------------------------------------------------------------------
Total thermal energy                   -323.02775260 Eh

Summary of corrections to the electronic energy:
(perhaps to be used in another calculation)
Total thermal correction                  0.00696603 Eh       4.37 kcal/mol
Non-thermal (ZPE) correction              0.10853315 Eh      68.11 kcal/mol
-----------------------------------------------------------------------
Total correction                          0.11549918 Eh      72.48 kcal/mol

--------
ENTHALPY
--------

The enthalpy is H = U + kB*T
                kB is Boltzmann's constant
Total free energy                 ...   -323.02775260 Eh
Thermal Enthalpy correction       ...      0.00094421 Eh       0.59 kcal/mol
-----------------------------------------------------------------------
Total Enthalpy                    ...   -323.02680839 Eh

Vibrational entropy computed according to the QRRHO of S. Grimme
Chem.Eur.J. 2012 18 9955

check

-------
ENTROPY
-------

The entropy contributions are T*S = T*(S(el)+S(vib)+S(rot)+S(trans)
     S(el)   - electronic entropy
     S(vib)  - vibrational entropy
     S(rot)  - rotational entropy
     S(trans)- translational entropy
The entropies will be listed as mutliplied by the temperature to get
units of energy

Electronic entropy                ...      0.00000000 Eh      0.00 kcal/mol
Vibrational entropy               ...      0.00692180 Eh      4.34 kcal/mol
Rotational entropy                ...      0.01159718 Eh      7.28 kcal/mol
Translational entropy             ...      0.01870769 Eh     11.74 kcal/mol
-----------------------------------------------------------------------
Final entropy term                ...      0.03722667 Eh     23.36 kcal/mol

CAUTION: The rotational entropy is not quite correctly treated here
         because it includes a symmetry number that is not yet correctly
         implemented in ORCA!
For a nonlinear molecule the correct rotational entropy is:
    S(rot) = R*(ln(qrot/sn)+1.5)
    R    = 8.31441 J/mol/K = 1.987191683e-3 kcal/mol/K
    qrot = 144553.2621521
    sn is the rotational symmetry number. We have assumed 3 here
       if it is different for your molecule then you should correct
       the printed rotational entropy by manually evaluating the equation
       as given above

For convenience we print out the resulting values for sn=1 - 12:
 sn= 1  qrot/sn=  144553.2622 T*S(rot)=     7.93 kcal/mol T*S(tot)=    24.01 kcal/mol
 sn= 2  qrot/sn=   72276.6311 T*S(rot)=     7.52 kcal/mol T*S(tot)=    23.60 kcal/mol
 sn= 3  qrot/sn=   48184.4207 T*S(rot)=     7.28 kcal/mol T*S(tot)=    23.36 kcal/mol
 sn= 4  qrot/sn=   36138.3155 T*S(rot)=     7.11 kcal/mol T*S(tot)=    23.19 kcal/mol
 sn= 5  qrot/sn=   28910.6524 T*S(rot)=     6.97 kcal/mol T*S(tot)=    23.06 kcal/mol
 sn= 6  qrot/sn=   24092.2104 T*S(rot)=     6.87 kcal/mol T*S(tot)=    22.95 kcal/mol
 sn= 7  qrot/sn=   20650.4660 T*S(rot)=     6.78 kcal/mol T*S(tot)=    22.86 kcal/mol
 sn= 8  qrot/sn=   18069.1578 T*S(rot)=     6.70 kcal/mol T*S(tot)=    22.78 kcal/mol
 sn= 9  qrot/sn=   16061.4736 T*S(rot)=     6.63 kcal/mol T*S(tot)=    22.71 kcal/mol
 sn=10  qrot/sn=   14455.3262 T*S(rot)=     6.56 kcal/mol T*S(tot)=    22.65 kcal/mol
 sn=11  qrot/sn=   13141.2057 T*S(rot)=     6.51 kcal/mol T*S(tot)=    22.59 kcal/mol
 sn=12  qrot/sn=   12046.1052 T*S(rot)=     6.46 kcal/mol T*S(tot)=    22.54 kcal/mol

-------------------
GIBBS FREE ENTHALPY
-------------------

The Gibbs free enthalpy is G = H - T*S

Total enthalpy                    ...   -323.02680839 Eh
Total entropy correction          ...     -0.03722667 Eh    -23.36 kcal/mol
-----------------------------------------------------------------------
Final Gibbs free enthalpy         ...   -323.06403506 Eh

For completeness - the Gibbs free enthalpy minus the electronic energy
G-E(el)                           ...      0.07921671 Eh     49.71 kcal/mol

                             ****ORCA TERMINATED NORMALLY****
TOTAL RUN TIME: 0 days 0 hours 16 minutes 41 seconds 235 msec
