                         Program Version 4.0.0 -  RELEASE  -
|  1> ! PBE0
|  2> ! opt anfreq
|  3> * xyzfile 0 1 valine.xyz **                         ****END OF INPUT****
 Total Charge           Charge          ....    0
 Multiplicity           Mult            ....    1
 Number of Electrons    NEL             ....   64
FINAL SINGLE POINT ENERGY      -401.607586564593
FINAL SINGLE POINT ENERGY      -401.615313361096
FINAL SINGLE POINT ENERGY      -401.617206311451
FINAL SINGLE POINT ENERGY      -401.618341001640
FINAL SINGLE POINT ENERGY      -401.618732952557
FINAL SINGLE POINT ENERGY      -401.618964971779
FINAL SINGLE POINT ENERGY      -401.619139740445
FINAL SINGLE POINT ENERGY      -401.619181127673
FINAL SINGLE POINT ENERGY      -401.619191910211
FINAL SINGLE POINT ENERGY      -401.619194095953
                    ***********************HURRAY********************

CARTESIAN COORDINATES (ANGSTROEM)
---------------------------------
  C      0.921723   -0.111843    0.080783
  C      2.437299    0.035630   -0.002751
  C      2.946055   -0.289836   -1.401670
  C      2.938352    1.432576    0.435399
  C      2.404866    1.775325    1.831396
  O      3.004992    1.503623    2.833198
  O      1.212261    2.389665    1.894575
  N      4.382221    1.483326    0.401521
  H      0.616971   -1.111917   -0.262601
  H      0.412964    0.615879   -0.576457
  H      0.531466    0.014236    1.101445
  H      2.889256   -0.679545    0.709660
  H      2.470176    0.364254   -2.151659
  H      2.710119   -1.330779   -1.670999
  H      4.032143   -0.140654   -1.462307
  H      2.545222    2.171101   -0.291007
  H      0.871353    2.534694    1.003590
  H      4.729654    0.991468    1.226578
  H      4.701047    2.444117    0.507806

 Multiplicity           Mult            ....    1
 Number of Electrons    NEL             ....   64
 Basis Dimension        Dim             ....  167

ORBITAL ENERGIES
----------------

  NO   OCC          E(Eh)            E(eV)
   0   2.0000     -19.263519      -524.1870
   1   2.0000     -19.197327      -522.3858
   2   2.0000     -14.379823      -391.2949
   3   2.0000     -10.359101      -281.8855
   4   2.0000     -10.282567      -279.8029
   5   2.0000     -10.252163      -278.9756
   6   2.0000     -10.238463      -278.6027
   7   2.0000     -10.224470      -278.2220
   8   2.0000      -1.129079       -30.7238
   9   2.0000      -1.042889       -28.3785
  10   2.0000      -0.921841       -25.0846
  11   2.0000      -0.821467       -22.3532
  12   2.0000      -0.713264       -19.4089
  13   2.0000      -0.704033       -19.1577
  14   2.0000      -0.640349       -17.4248
  15   2.0000      -0.599131       -16.3032
  16   2.0000      -0.554775       -15.0962
  17   2.0000      -0.513386       -13.9699
  18   2.0000      -0.494088       -13.4448
  19   2.0000      -0.473526       -12.8853
  20   2.0000      -0.465815       -12.6755
  21   2.0000      -0.438523       -11.9328
  22   2.0000      -0.428596       -11.6627
  23   2.0000      -0.409115       -11.1326
  24   2.0000      -0.404164       -10.9978
  25   2.0000      -0.398840       -10.8530
  26   2.0000      -0.367553       -10.0016
  27   2.0000      -0.356967        -9.7136
  28   2.0000      -0.344785        -9.3821
  29   2.0000      -0.335028        -9.1166
  30   2.0000      -0.296811        -8.0766
  31   2.0000      -0.260852        -7.0982
  32   0.0000       0.010959         0.2982
  33   0.0000       0.037115         1.0100
  34   0.0000       0.074377         2.0239
  35   0.0000       0.079015         2.1501
  36   0.0000       0.099093         2.6965

MULLIKEN ATOMIC CHARGES
-----------------------
   0 C :   -0.058514
   1 C :   -0.181147
   2 C :   -0.001866
   3 C :   -0.085763
   4 C :    0.192029
   5 O :   -0.227271
   6 O :   -0.176365
   7 N :   -0.203294
   8 H :    0.048100
   9 H :    0.026884
  10 H :    0.063483
  11 H :    0.045614
  12 H :    0.021741
  13 H :    0.040172
  14 H :    0.058917
  15 H :    0.022987
  16 H :    0.183975
  17 H :    0.120487
  18 H :    0.109832
Sum of atomic charges:   -0.0000000

LOEWDIN ATOMIC CHARGES
----------------------
   0 C :   -0.072275
   1 C :   -0.047603
   2 C :   -0.063311
   3 C :   -0.039828
   4 C :    0.062673
   5 O :   -0.165773
   6 O :   -0.025865
   7 N :   -0.089090
   8 H :    0.036225
   9 H :    0.021320
  10 H :    0.030244
  11 H :    0.033898
  12 H :    0.024089
  13 H :    0.028469
  14 H :    0.032966
  15 H :    0.021849
  16 H :    0.087943
  17 H :    0.061880
  18 H :    0.062188

  Mayer bond orders larger than 0.1
B(  0-C ,  1-C ) :   1.0548 B(  0-C ,  8-H ) :   0.9632 B(  0-C ,  9-H ) :   0.9628
B(  0-C , 10-H ) :   0.9584 B(  1-C ,  2-C ) :   1.0729 B(  1-C ,  3-C ) :   0.9902
B(  1-C , 11-H ) :   0.9170 B(  2-C , 12-H ) :   0.9606 B(  2-C , 13-H ) :   0.9687
B(  2-C , 14-H ) :   0.9553 B(  3-C ,  4-C ) :   0.9042 B(  3-C ,  7-N ) :   1.1160
B(  3-C , 15-H ) :   0.9086 B(  4-C ,  5-O ) :   2.1235 B(  4-C ,  6-O ) :   1.1704
B(  6-O , 16-H ) :   0.9527 B(  7-N , 17-H ) :   0.9576 B(  7-N , 18-H ) :   0.9676

FINAL SINGLE POINT ENERGY      -401.619194331443

DIPOLE MOMENT
-------------
                                X             Y             Z
Electronic contribution:      0.73796       5.53388       8.58492
Nuclear contribution   :     -1.16069      -5.30730      -9.69666
                        -----------------------------------------
Total Dipole Moment    :     -0.42273       0.22658      -1.11174
                        -----------------------------------------
Magnitude (a.u.)       :      1.21079
Magnitude (Debye)      :      3.07758

VIBRATIONAL FREQUENCIES
-----------------------

   0:         0.00 cm**-1
   1:         0.00 cm**-1
   2:         0.00 cm**-1
   3:         0.00 cm**-1
   4:         0.00 cm**-1
   5:         0.00 cm**-1
   6:        68.42 cm**-1
   7:        73.03 cm**-1
   8:       189.58 cm**-1
   9:       233.36 cm**-1
  10:       249.65 cm**-1
  11:       262.98 cm**-1
  12:       290.88 cm**-1
  13:       314.75 cm**-1
  14:       372.07 cm**-1
  15:       380.26 cm**-1
  16:       429.18 cm**-1
  17:       525.96 cm**-1
  18:       544.97 cm**-1
  19:       695.83 cm**-1
  20:       735.14 cm**-1
  21:       852.74 cm**-1
  22:       880.80 cm**-1
  23:       926.72 cm**-1
  24:       929.60 cm**-1
  25:       960.19 cm**-1
  26:      1001.53 cm**-1
  27:      1068.00 cm**-1
  28:      1146.45 cm**-1
  29:      1164.21 cm**-1
  30:      1176.70 cm**-1
  31:      1194.54 cm**-1
  32:      1242.14 cm**-1
  33:      1267.20 cm**-1
  34:      1335.05 cm**-1
  35:      1354.97 cm**-1
  36:      1360.59 cm**-1
  37:      1382.12 cm**-1
  38:      1402.11 cm**-1
  39:      1417.25 cm**-1
  40:      1456.82 cm**-1
  41:      1463.02 cm**-1
  42:      1479.27 cm**-1
  43:      1487.20 cm**-1
  44:      1645.65 cm**-1
  45:      1915.32 cm**-1
  46:      3020.57 cm**-1
  47:      3039.08 cm**-1
  48:      3047.73 cm**-1
  49:      3052.99 cm**-1
  50:      3131.62 cm**-1
  51:      3137.98 cm**-1
  52:      3158.32 cm**-1
  53:      3180.26 cm**-1
  54:      3524.47 cm**-1
  55:      3609.65 cm**-1
  56:      3862.84 cm**-1

IR SPECTRUM
-----------

 Mode    freq (cm**-1)   T**2         TX         TY         TZ
-------------------------------------------------------------------
   6:        68.42    4.313842  ( -1.179492  -1.709337   0.028410)
   7:        73.03    2.867726  (  0.204501  -1.631927  -0.403386)
   8:       189.58    2.359081  (  0.944860   1.210522   0.030944)
   9:       233.36    2.364923  ( -0.892428   1.211187   0.318624)
  10:       249.65   27.983465  (  1.136786  -4.877513   1.703247)
  11:       262.98   18.729696  (  0.980471  -4.211885  -0.168505)
  12:       290.88   11.099998  (  2.975698  -0.557324  -1.390902)
  13:       314.75   11.024323  (  2.341393   2.354073  -0.023338)
  14:       372.07   14.445568  (  2.523147   2.508733  -1.336248)
  15:       380.26    2.733772  ( -1.461919  -0.561793   0.530051)
  16:       429.18    1.238364  (  0.257743  -1.079398  -0.082666)
  17:       525.96   95.641257  (  3.312892   9.176216   0.680482)
  18:       544.97   14.505542  (  1.548079   3.437465   0.541136)
  19:       695.83   15.884594  (  3.284637  -0.821659   2.102530)
  20:       735.14    1.441957  (  1.009550   0.439463   0.479205)
  21:       852.74    0.496408  (  0.173292  -0.363823  -0.577937)
  22:       880.80   66.966734  (  5.812231  -0.176941  -5.757898)
  23:       926.72   18.578138  (  4.193681  -0.020697  -0.995362)
  24:       929.60   25.765050  ( -4.696918   0.659873   1.807921)
  25:       960.19   13.598118  (  3.114704  -0.694079  -1.847969)
  26:      1001.53   63.720547  (  5.901173  -3.129979  -4.370347)
  27:      1068.00    4.149084  ( -1.622297  -1.180750  -0.350809)
  28:      1146.45    4.867558  (  1.105419   1.635380   0.985464)
  29:      1164.21    6.703648  (  0.377124  -1.040542  -2.340662)
  30:      1176.70    2.452144  (  1.115307   1.078322  -0.213204)
  31:      1194.54    5.083205  ( -1.010755   1.967951   0.434452)
  32:      1242.14    5.604961  ( -0.383539   1.969474   1.256595)
  33:      1267.20   97.127604  (  8.877170  -4.173031  -0.953557)
  34:      1335.05   73.450910  (  6.970585  -4.680173  -1.719837)
  35:      1354.97   49.019878  (  6.320712  -2.980190  -0.432365)
  36:      1360.59  149.540296  ( -9.707644   6.581144   3.462730)
  37:      1382.12   13.871469  ( -1.848293   1.303810   2.958946)
  38:      1402.11   16.856820  ( -3.997722   0.458440  -0.815394)
  39:      1417.25   26.138622  ( -3.412332   2.870015   2.501525)
  40:      1456.82    3.853751  ( -1.477456   1.115966   0.652298)
  41:      1463.02    1.086794  ( -0.047214   0.310124   0.994177)
  42:      1479.27    9.331095  (  0.820600  -2.356008   1.762651)
  43:      1487.20   16.015189  (  0.146972  -3.999114   0.025982)
  44:      1645.65   30.327312  (  3.610492   1.398977   3.915932)
  45:      1915.32  245.208616  (  8.067827  -1.734052  13.308338)
  46:      3020.57   16.895642  (  2.305933  -2.910845   1.762185)
  47:      3039.08   11.013477  (  3.262185  -0.608531  -0.036317)
  48:      3047.73   10.325147  ( -1.625616   2.301894   1.543957)
  49:      3052.99   40.528122  (  3.277523  -1.298156   5.301014)
  50:      3131.62    8.093777  (  0.405723   2.396141  -1.479079)
  51:      3137.98   33.837737  (  0.886732  -5.563392   1.449178)
  52:      3158.32   11.223002  ( -0.155655  -1.677562  -2.895610)
  53:      3180.26    3.534883  (  1.837350   0.362961   0.165188)
  54:      3524.47    8.425790  (  1.074832   0.009195   2.696375)
  55:      3609.65    8.358292  (  0.113638  -2.258500   1.801265)
  56:      3862.84   51.391507  (  4.147869  -1.776931   5.570387)

--------------------------
THERMOCHEMISTRY AT 298.15K
--------------------------

Temperature         ... 298.15 K
Pressure            ... 1.00 atm
Total Mass          ... 117.15 AMU

Throughout the following assumptions are being made:
  (1) The electronic state is orbitally nondegenerate
  (2) There are no thermally accessible electronically excited states
  (3) Hindered rotations indicated by low frequency modes are not
      treated as such but are treated as vibrations and this may
      cause some error
  (4) All equations used are the standard statistical mechanics
      equations for an ideal gas
  (5) All vibrations are strictly harmonic

freq.      68.42  E(vib)   ...       0.50
freq.      73.03  E(vib)   ...       0.49
freq.     189.58  E(vib)   ...       0.36
freq.     233.36  E(vib)   ...       0.32
freq.     249.65  E(vib)   ...       0.31
freq.     262.98  E(vib)   ...       0.29
freq.     290.88  E(vib)   ...       0.27
freq.     314.75  E(vib)   ...       0.25
freq.     372.07  E(vib)   ...       0.21
freq.     380.26  E(vib)   ...       0.21
freq.     429.18  E(vib)   ...       0.18
freq.     525.96  E(vib)   ...       0.13
freq.     544.97  E(vib)   ...       0.12
freq.     695.83  E(vib)   ...       0.07
freq.     735.14  E(vib)   ...       0.06
freq.     852.74  E(vib)   ...       0.04
freq.     880.80  E(vib)   ...       0.04
freq.     926.72  E(vib)   ...       0.03
freq.     929.60  E(vib)   ...       0.03
freq.     960.19  E(vib)   ...       0.03
freq.    1001.53  E(vib)   ...       0.02
freq.    1068.00  E(vib)   ...       0.02
freq.    1146.45  E(vib)   ...       0.01
freq.    1164.21  E(vib)   ...       0.01
freq.    1176.70  E(vib)   ...       0.01
freq.    1194.54  E(vib)   ...       0.01
freq.    1242.14  E(vib)   ...       0.01
freq.    1267.20  E(vib)   ...       0.01
freq.    1335.05  E(vib)   ...       0.01
freq.    1354.97  E(vib)   ...       0.01
freq.    1360.59  E(vib)   ...       0.01
freq.    1382.12  E(vib)   ...       0.01
freq.    1402.11  E(vib)   ...       0.00
freq.    1417.25  E(vib)   ...       0.00
freq.    1456.82  E(vib)   ...       0.00
freq.    1463.02  E(vib)   ...       0.00
freq.    1479.27  E(vib)   ...       0.00
freq.    1487.20  E(vib)   ...       0.00
freq.    1645.65  E(vib)   ...       0.00
freq.    1915.32  E(vib)   ...       0.00
freq.    3020.57  E(vib)   ...       0.00
freq.    3039.08  E(vib)   ...       0.00
freq.    3047.73  E(vib)   ...       0.00
freq.    3052.99  E(vib)   ...       0.00
freq.    3131.62  E(vib)   ...       0.00
freq.    3137.98  E(vib)   ...       0.00
freq.    3158.32  E(vib)   ...       0.00
freq.    3180.26  E(vib)   ...       0.00
freq.    3524.47  E(vib)   ...       0.00
freq.    3609.65  E(vib)   ...       0.00
freq.    3862.84  E(vib)   ...       0.00

------------
INNER ENERGY
------------

The inner energy is: U= E(el) + E(ZPE) + E(vib) + E(rot) + E(trans)
    E(el)   - is the total energy from the electronic structure calculation
              = E(kin-el) + E(nuc-el) + E(el-el) + E(nuc-nuc)
    E(ZPE)  - the the zero temperature vibrational energy from the frequency calculation
    E(vib)  - the the finite temperature correction to E(ZPE) due to population
              of excited vibrational states
    E(rot)  - is the rotational thermal energy
    E(trans)- is the translational thermal energy

Summary of contributions to the inner energy U:
Electronic energy                ...   -401.61919433 Eh
Zero point energy                ...      0.16549012 Eh     103.85 kcal/mol
Thermal vibrational correction   ...      0.00652765 Eh       4.10 kcal/mol
Thermal rotational correction    ...      0.00141627 Eh       0.89 kcal/mol
Thermal translational correction ...      0.00141627 Eh       0.89 kcal/mol
-----------------------------------------------------------------------
Total thermal energy                   -401.44434402 Eh

Summary of corrections to the electronic energy:
(perhaps to be used in another calculation)
Total thermal correction                  0.00936019 Eh       5.87 kcal/mol
Non-thermal (ZPE) correction              0.16549012 Eh     103.85 kcal/mol
-----------------------------------------------------------------------
Total correction                          0.17485031 Eh     109.72 kcal/mol

--------
ENTHALPY
--------

The enthalpy is H = U + kB*T
                kB is Boltzmann's constant
Total free energy                 ...   -401.44434402 Eh
Thermal Enthalpy correction       ...      0.00094421 Eh       0.59 kcal/mol
-----------------------------------------------------------------------
Total Enthalpy                    ...   -401.44339981 Eh

Vibrational entropy computed according to the QRRHO of S. Grimme
Chem.Eur.J. 2012 18 9955

check

-------
ENTROPY
-------

The entropy contributions are T*S = T*(S(el)+S(vib)+S(rot)+S(trans)
     S(el)   - electronic entropy
     S(vib)  - vibrational entropy
     S(rot)  - rotational entropy
     S(trans)- translational entropy
The entropies will be listed as mutliplied by the temperature to get
units of energy

Electronic entropy                ...      0.00000000 Eh      0.00 kcal/mol
Vibrational entropy               ...      0.01095155 Eh      6.87 kcal/mol
Rotational entropy                ...      0.01248621 Eh      7.84 kcal/mol
Translational entropy             ...      0.01909539 Eh     11.98 kcal/mol
-----------------------------------------------------------------------
Final entropy term                ...      0.04253315 Eh     26.69 kcal/mol

CAUTION: The rotational entropy is not quite correctly treated here
         because it includes a symmetry number that is not yet correctly
         implemented in ORCA!
For a nonlinear molecule the correct rotational entropy is:
    S(rot) = R*(ln(qrot/sn)+1.5)
    R    = 8.31441 J/mol/K = 1.987191683e-3 kcal/mol/K
    qrot = 370641.4556694
    sn is the rotational symmetry number. We have assumed 3 here
       if it is different for your molecule then you should correct
       the printed rotational entropy by manually evaluating the equation
       as given above

For convenience we print out the resulting values for sn=1 - 12:
 sn= 1  qrot/sn=  370641.4557 T*S(rot)=     8.49 kcal/mol T*S(tot)=    27.34 kcal/mol
 sn= 2  qrot/sn=  185320.7278 T*S(rot)=     8.08 kcal/mol T*S(tot)=    26.93 kcal/mol
 sn= 3  qrot/sn=  123547.1519 T*S(rot)=     7.84 kcal/mol T*S(tot)=    26.69 kcal/mol
 sn= 4  qrot/sn=   92660.3639 T*S(rot)=     7.66 kcal/mol T*S(tot)=    26.52 kcal/mol
 sn= 5  qrot/sn=   74128.2911 T*S(rot)=     7.53 kcal/mol T*S(tot)=    26.39 kcal/mol
 sn= 6  qrot/sn=   61773.5759 T*S(rot)=     7.42 kcal/mol T*S(tot)=    26.28 kcal/mol
 sn= 7  qrot/sn=   52948.7794 T*S(rot)=     7.33 kcal/mol T*S(tot)=    26.19 kcal/mol
 sn= 8  qrot/sn=   46330.1820 T*S(rot)=     7.25 kcal/mol T*S(tot)=    26.11 kcal/mol
 sn= 9  qrot/sn=   41182.3840 T*S(rot)=     7.18 kcal/mol T*S(tot)=    26.04 kcal/mol
 sn=10  qrot/sn=   37064.1456 T*S(rot)=     7.12 kcal/mol T*S(tot)=    25.98 kcal/mol
 sn=11  qrot/sn=   33694.6778 T*S(rot)=     7.07 kcal/mol T*S(tot)=    25.92 kcal/mol

                             ****ORCA TERMINATED NORMALLY****
TOTAL RUN TIME: 0 days 2 hours 56 minutes 48 seconds 665 msec
