                         Program Version 4.0.0 -  RELEASE  -
|  1> ! PBE0
|  2> ! opt anfreq
|  3> * xyzfile 0 1 arginine.xyz **                         ****END OF INPUT****
 Total Charge           Charge          ....    0
 Multiplicity           Mult            ....    1
 Number of Electrons    NEL             ....   94
FINAL SINGLE POINT ENERGY      -605.389800249904
FINAL SINGLE POINT ENERGY      -605.407212155450
FINAL SINGLE POINT ENERGY      -605.410153076649
FINAL SINGLE POINT ENERGY      -605.410647355116
FINAL SINGLE POINT ENERGY      -605.411371262790
FINAL SINGLE POINT ENERGY      -605.411426117585
FINAL SINGLE POINT ENERGY      -605.411452388746
FINAL SINGLE POINT ENERGY      -605.411464443172
FINAL SINGLE POINT ENERGY      -605.411522836940
FINAL SINGLE POINT ENERGY      -605.411600696445
FINAL SINGLE POINT ENERGY      -605.414721076906
FINAL SINGLE POINT ENERGY      -605.414969830997
FINAL SINGLE POINT ENERGY      -605.415047057682
FINAL SINGLE POINT ENERGY      -605.415108087770
FINAL SINGLE POINT ENERGY      -605.415124603453
FINAL SINGLE POINT ENERGY      -605.415140436951
FINAL SINGLE POINT ENERGY      -605.415148051468
FINAL SINGLE POINT ENERGY      -605.415155999628
FINAL SINGLE POINT ENERGY      -605.415158532808
                    ***********************HURRAY********************

CARTESIAN COORDINATES (ANGSTROEM)
---------------------------------
  C      1.166144    0.218781    0.090373
  C      0.555081   -0.088735   -1.267708
  C     -0.970167   -0.268662   -1.305819
  C     -1.691670    1.045062   -0.979133
  O     -2.221729    1.721627   -1.814981
  O     -1.701578    1.421365    0.310048
  N     -1.362373   -0.801738   -2.588860
  C      2.689083    0.200689    0.082924
  N      3.203397    0.503508    1.385674
  C      4.450070    0.341062    1.618261
  N      5.418671    0.001997    0.695274
  N      4.943832    0.506236    2.902516
  H      0.829903   -0.521168    0.840756
  H      0.854872    1.209764    0.459870
  H      0.970184   -1.029723   -1.663990
  H      0.830856    0.697356   -1.993776
  H     -1.240902   -1.006092   -0.525703
  H     -1.209905    0.786666    0.846640
  H     -1.252435   -0.062312   -3.284312
  H     -2.361695   -0.998706   -2.584690
  H      3.040723    0.933681   -0.675441
  H      3.024437   -0.796009   -0.287851
  H      5.085790   -0.319104   -0.203748
  H      6.212497   -0.518634    1.047217
  H      4.236451    0.893342    3.517254
  H      5.823016    1.009605    2.958206

 Multiplicity           Mult            ....    1
 Number of Electrons    NEL             ....   94
 Basis Dimension        Dim             ....  238

ORBITAL ENERGIES
----------------

  NO   OCC          E(Eh)            E(eV)
   0   2.0000     -19.254093      -523.9305
   1   2.0000     -19.189768      -522.1801
   2   2.0000     -14.411362      -392.1531
   3   2.0000     -14.397970      -391.7887
   4   2.0000     -14.371812      -391.0769
   5   2.0000     -14.343618      -390.3097
   6   2.0000     -10.350958      -281.6639
   7   2.0000     -10.324049      -280.9316
   8   2.0000     -10.276492      -279.6376
   9   2.0000     -10.257365      -279.1171
  10   2.0000     -10.240280      -278.6522
  11   2.0000     -10.233850      -278.4772
  12   2.0000      -1.120339       -30.4860
  13   2.0000      -1.034509       -28.1504
  14   2.0000      -0.999154       -27.1884
  15   2.0000      -0.913748       -24.8643
  16   2.0000      -0.890969       -24.2445
  17   2.0000      -0.885834       -24.1048
  18   2.0000      -0.806717       -21.9519
  19   2.0000      -0.733877       -19.9698
  20   2.0000      -0.668821       -18.1995
  21   2.0000      -0.628750       -17.1092
  22   2.0000      -0.618897       -16.8410
  23   2.0000      -0.598906       -16.2971
  24   2.0000      -0.553929       -15.0732
  25   2.0000      -0.548546       -14.9267
  26   2.0000      -0.546387       -14.8679
  27   2.0000      -0.507872       -13.8199
  28   2.0000      -0.487477       -13.2649
  29   2.0000      -0.477094       -12.9824
  30   2.0000      -0.474279       -12.9058
  31   2.0000      -0.461483       -12.5576
  32   2.0000      -0.458181       -12.4677
  33   2.0000      -0.438953       -11.9445
  34   2.0000      -0.428389       -11.6570
  35   2.0000      -0.412632       -11.2283
  36   2.0000      -0.394815       -10.7435
  37   2.0000      -0.382849       -10.4178
  38   2.0000      -0.370298       -10.0763
  39   2.0000      -0.356768        -9.7082
  40   2.0000      -0.346420        -9.4266
  41   2.0000      -0.327219        -8.9041
  42   2.0000      -0.289610        -7.8807
  43   2.0000      -0.287120        -7.8129
  44   2.0000      -0.259792        -7.0693
  45   2.0000      -0.256108        -6.9691
  46   2.0000      -0.235813        -6.4168
  47   0.0000       0.018702         0.5089
  48   0.0000       0.049829         1.3559
  49   0.0000       0.052754         1.4355
  50   0.0000       0.058263         1.5854
  51   0.0000       0.076273         2.0755

MULLIKEN ATOMIC CHARGES
-----------------------
   0 C :   -0.097919
   1 C :   -0.015319
   2 C :   -0.117726
   3 C :    0.189862
   4 O :   -0.229032
   5 O :   -0.176951
   6 N :   -0.203794
   7 C :    0.060781
   8 N :   -0.281755
   9 C :    0.043354
  10 N :   -0.182122
  11 N :   -0.172161
  12 H :    0.034482
  13 H :    0.046381
  14 H :    0.049197
  15 H :    0.040646
  16 H :    0.039633
  17 H :    0.186456
  18 H :    0.115173
  19 H :    0.108931
  20 H :    0.028867
  21 H :    0.002489
  22 H :    0.132285
  23 H :    0.133491
  24 H :    0.135523
  25 H :    0.129228
Sum of atomic charges:   -0.0000000

LOEWDIN ATOMIC CHARGES
----------------------
   0 C :   -0.065583
   1 C :   -0.039865
   2 C :   -0.045100
   3 C :    0.062135
   4 O :   -0.169272
   5 O :   -0.025917
   6 N :   -0.096049
   7 C :    0.001581
   8 N :   -0.234772
   9 C :    0.048682
  10 N :   -0.049790
  11 N :   -0.057708
  12 H :    0.023609
  13 H :    0.026545
  14 H :    0.034216
  15 H :    0.030668
  16 H :    0.028441
  17 H :    0.086845
  18 H :    0.060566
  19 H :    0.061183
  20 H :    0.014834
  21 H :    0.001313
  22 H :    0.075770
  23 H :    0.076653
  24 H :    0.078918
  25 H :    0.072096

  Mayer bond orders larger than 0.1
B(  0-C ,  1-C ) :   1.0404 B(  0-C ,  7-C ) :   1.0832 B(  0-C , 12-H ) :   0.9402
B(  0-C , 13-H ) :   0.9251 B(  1-C ,  2-C ) :   1.0307 B(  1-C , 14-H ) :   0.9379
B(  1-C , 15-H ) :   0.9340 B(  2-C ,  3-C ) :   0.8866 B(  2-C ,  6-N ) :   1.1271
B(  2-C , 16-H ) :   0.9150 B(  3-C ,  4-O ) :   2.1331 B(  3-C ,  5-O ) :   1.1826
B(  5-O , 17-H ) :   0.9483 B(  6-N , 18-H ) :   0.9622 B(  6-N , 19-H ) :   0.9668
B(  7-C ,  8-N ) :   1.0519 B(  7-C , 20-H ) :   0.9314 B(  7-C , 21-H ) :   0.9215
B(  8-N ,  9-C ) :   1.8234 B(  9-C , 10-N ) :   1.1889 B(  9-C , 11-N ) :   1.1708
B( 10-N , 22-H ) :   0.9494 B( 10-N , 23-H ) :   0.9409 B( 11-N , 24-H ) :   0.9439
B( 11-N , 25-H ) :   0.9486

FINAL SINGLE POINT ENERGY      -605.415159601835

DIPOLE MOMENT
-------------
                                X             Y             Z
Electronic contribution:     -5.72175       4.11897       1.07842
Nuclear contribution   :      7.59864      -5.05769      -0.45984
                        -----------------------------------------
Total Dipole Moment    :      1.87689      -0.93872       0.61858
                        -----------------------------------------
Magnitude (a.u.)       :      2.18782
Magnitude (Debye)      :      5.56099

VIBRATIONAL FREQUENCIES
-----------------------

   0:         0.00 cm**-1
   1:         0.00 cm**-1
   2:         0.00 cm**-1
   3:         0.00 cm**-1
   4:         0.00 cm**-1
   5:         0.00 cm**-1
   6:        22.80 cm**-1
   7:        34.04 cm**-1
   8:        53.85 cm**-1
   9:        68.24 cm**-1
  10:       108.05 cm**-1
  11:       128.65 cm**-1
  12:       167.15 cm**-1
  13:       210.53 cm**-1
  14:       240.39 cm**-1
  15:       260.25 cm**-1
  16:       271.98 cm**-1
  17:       311.24 cm**-1
  18:       372.70 cm**-1
  19:       388.10 cm**-1
  20:       413.58 cm**-1
  21:       435.05 cm**-1
  22:       495.58 cm**-1
  23:       502.82 cm**-1
  24:       515.66 cm**-1
  25:       558.75 cm**-1
  26:       604.62 cm**-1
  27:       644.78 cm**-1
  28:       668.44 cm**-1
  29:       744.67 cm**-1
  30:       769.80 cm**-1
  31:       777.70 cm**-1
  32:       827.16 cm**-1
  33:       894.19 cm**-1
  34:       938.01 cm**-1
  35:       965.77 cm**-1
  36:      1022.89 cm**-1
  37:      1066.03 cm**-1
  38:      1078.23 cm**-1
  39:      1082.39 cm**-1
  40:      1096.11 cm**-1
  41:      1112.22 cm**-1
  42:      1162.91 cm**-1
  43:      1177.57 cm**-1
  44:      1193.23 cm**-1
  45:      1219.72 cm**-1
  46:      1244.52 cm**-1
  47:      1270.33 cm**-1
  48:      1280.42 cm**-1
  49:      1309.24 cm**-1
  50:      1316.15 cm**-1
  51:      1369.84 cm**-1
  52:      1372.52 cm**-1
  53:      1416.32 cm**-1
  54:      1423.99 cm**-1
  55:      1457.60 cm**-1
  56:      1461.53 cm**-1
  57:      1465.86 cm**-1
  58:      1487.67 cm**-1
  59:      1603.89 cm**-1
  60:      1623.83 cm**-1
  61:      1652.04 cm**-1
  62:      1801.89 cm**-1
  63:      1916.07 cm**-1
  64:      2924.50 cm**-1
  65:      2982.50 cm**-1
  66:      3031.59 cm**-1
  67:      3035.55 cm**-1
  68:      3052.29 cm**-1
  69:      3100.84 cm**-1
  70:      3119.24 cm**-1
  71:      3528.20 cm**-1
  72:      3589.20 cm**-1
  73:      3604.05 cm**-1
  74:      3617.12 cm**-1
  75:      3702.28 cm**-1
  76:      3732.91 cm**-1
  77:      3849.63 cm**-1

IR SPECTRUM
-----------

 Mode    freq (cm**-1)   T**2         TX         TY         TZ
-------------------------------------------------------------------
   6:        22.80    2.346763  ( -1.239410   0.891208  -0.127960)
   7:        34.04    5.794221  ( -1.712215  -1.688990   0.099269)
   8:        53.85   10.193775  ( -2.818447  -1.343794   0.666595)
   9:        68.24    0.576235  ( -0.306747  -0.156145  -0.676580)
  10:       108.05    0.036515  (  0.013696   0.189973   0.015409)
  11:       128.65    1.662643  (  0.856643  -0.462960  -0.845265)
  12:       167.15    0.845578  (  0.822469   0.402936   0.082255)
  13:       210.53   34.877190  ( -4.384134  -2.496532   3.069835)
  14:       240.39   19.026656  (  3.072431   2.733167  -1.454863)
  15:       260.25    4.455843  ( -1.820354   0.917301  -0.548373)
  16:       271.98   12.424288  ( -0.142647  -1.676006  -3.097571)
  17:       311.24   12.116911  ( -0.196121   2.499855   2.414368)
  18:       372.70   70.160058  (  5.833581  -3.381550   4.969358)
  19:       388.10   33.852660  ( -5.461907  -1.518948  -1.308829)
  20:       413.58    8.828352  (  1.732540   2.413841  -0.005345)
  21:       435.05    0.322579  ( -0.022611   0.034843   0.566440)
  22:       495.58    5.906188  ( -1.442241  -0.183508  -1.947422)
  23:       502.82  360.440520  ( 15.448965   8.539543  -6.989007)
  24:       515.66   50.980544  (  7.075038   0.858403   0.433049)
  25:       558.75    8.561504  ( -2.178273  -0.344532  -1.923000)
  26:       604.62   19.987025  (  4.310585  -0.977690   0.670824)
  27:       644.78  150.967496  ( -7.388018   2.660535  -9.450198)
  28:       668.44   16.206030  ( -1.750885   0.316668  -3.611115)
  29:       744.67    6.759085  (  1.287214  -1.646280   1.546586)
  30:       769.80  140.989106  ( -2.287412   8.102411  -8.373039)
  31:       777.70    0.706045  (  0.708522  -0.262327  -0.367730)
  32:       827.16    9.389988  ( -0.972011   2.592805  -1.312457)
  33:       894.19   30.133510  (  0.053365  -3.804883  -3.956454)
  34:       938.01   90.784510  ( -1.553761   7.536506   5.618845)
  35:       965.77   47.552946  ( -1.780604  -3.768814  -5.493491)
  36:      1022.89   21.540916  (  1.780821  -2.679850  -3.344847)
  37:      1066.03   15.836527  ( -3.012281   1.874006   1.802996)
  38:      1078.23   13.455883  (  2.667422  -1.444975  -2.062230)
  39:      1082.39    0.563892  ( -0.138770   0.165244   0.719256)
  40:      1096.11    0.721433  ( -0.029004   0.407358   0.744749)
  41:      1112.22    5.181361  ( -0.147441   1.686414   1.521720)
  42:      1162.91    0.765843  (  0.567226  -0.520001   0.416770)
  43:      1177.57    9.741215  (  1.385670   2.394655   1.444562)
  44:      1193.23    6.854518  ( -2.415066   0.152980  -0.999285)
  45:      1219.72    2.273110  (  0.641126  -1.101120  -0.805980)
  46:      1244.52    1.648263  ( -0.915966   0.692595   0.574092)
  47:      1270.33   10.795997  (  0.038229   1.064553   3.108257)
  48:      1280.42  122.878088  (  1.745280  -4.126142 -10.139380)
  49:      1309.24   54.474312  (  0.382635  -2.925754  -6.765195)
  50:      1316.15    0.875723  ( -0.207428   0.679958   0.608567)
  51:      1369.84  158.032978  ( -1.759586   4.259010  11.696054)
  52:      1372.52   10.944794  ( -2.610195  -1.040596  -1.746091)
  53:      1416.32   38.403325  ( -5.929407   1.212166  -1.332706)
  54:      1423.99   33.997795  ( -2.264156  -1.382486  -5.192314)
  55:      1457.60   81.801544  (  1.203197  -1.425368  -8.849982)
  56:      1461.53    6.045438  (  0.654474   0.262558   2.355454)
  57:      1465.86    6.227468  ( -2.085239   0.096942   1.367424)
  58:      1487.67    6.040081  (  2.373874  -0.446463  -0.453291)
  59:      1603.89   18.500825  ( -0.124568   2.703851   3.342827)
  60:      1623.83  189.975112  (  3.897934  -6.990042 -11.221432)
  61:      1652.04   26.260402  (  3.250687  -1.858006   3.498750)
  62:      1801.89  623.884281  (-22.603227   1.010732 -10.580964)
  63:      1916.07  281.217797  ( -9.279542   8.592267 -11.012758)
  64:      2924.50   63.993601  (  0.903362  -4.825711  -6.315857)
  65:      2982.50   42.270939  ( -0.347826   5.438604  -3.545637)
  66:      3031.59    6.510842  ( -0.077633   1.364029  -2.155050)
  67:      3035.55   20.993622  ( -2.562280  -1.418032   3.523852)
  68:      3052.29   37.283483  (  2.995382   0.988561  -5.228185)
  69:      3100.84    1.432813  ( -0.286013  -1.141492  -0.219102)
  70:      3119.24   26.209712  (  0.557414  -5.004826   0.922344)
  71:      3528.20    4.818964  (  1.102658  -1.437376   1.239782)
  72:      3589.20   24.258870  ( -0.556978  -3.440094  -3.480574)
  73:      3604.05    5.745333  ( -1.293559  -1.604008   1.224417)
  74:      3617.12   22.832812  (  2.796495  -3.394405  -1.868273)
  75:      3702.28   32.356130  ( -4.882429   0.263924   2.906606)
  76:      3732.91   40.482868  (  3.935770  -0.622506   4.960349)
  77:      3849.63   77.156581  ( -5.460811   3.682395  -5.811720)

--------------------------
THERMOCHEMISTRY AT 298.15K
--------------------------

Temperature         ... 298.15 K
Pressure            ... 1.00 atm
Total Mass          ... 174.20 AMU

Throughout the following assumptions are being made:
  (1) The electronic state is orbitally nondegenerate
  (2) There are no thermally accessible electronically excited states
  (3) Hindered rotations indicated by low frequency modes are not
      treated as such but are treated as vibrations and this may
      cause some error
  (4) All equations used are the standard statistical mechanics
      equations for an ideal gas
  (5) All vibrations are strictly harmonic

freq.      22.80  E(vib)   ...       0.56
freq.      34.04  E(vib)   ...       0.55
freq.      53.85  E(vib)   ...       0.52
freq.      68.24  E(vib)   ...       0.50
freq.     108.05  E(vib)   ...       0.45
freq.     128.65  E(vib)   ...       0.43
freq.     167.15  E(vib)   ...       0.39
freq.     210.53  E(vib)   ...       0.34
freq.     240.39  E(vib)   ...       0.31
freq.     260.25  E(vib)   ...       0.30
freq.     271.98  E(vib)   ...       0.29
freq.     311.24  E(vib)   ...       0.25
freq.     372.70  E(vib)   ...       0.21
freq.     388.10  E(vib)   ...       0.20
freq.     413.58  E(vib)   ...       0.19
freq.     435.05  E(vib)   ...       0.17
freq.     495.58  E(vib)   ...       0.14
freq.     502.82  E(vib)   ...       0.14
freq.     515.66  E(vib)   ...       0.13
freq.     558.75  E(vib)   ...       0.12
freq.     604.62  E(vib)   ...       0.10
freq.     644.78  E(vib)   ...       0.09
freq.     668.44  E(vib)   ...       0.08
freq.     744.67  E(vib)   ...       0.06
freq.     769.80  E(vib)   ...       0.05
freq.     777.70  E(vib)   ...       0.05
freq.     827.16  E(vib)   ...       0.04
freq.     894.19  E(vib)   ...       0.03
freq.     938.01  E(vib)   ...       0.03
freq.     965.77  E(vib)   ...       0.03
freq.    1022.89  E(vib)   ...       0.02
freq.    1066.03  E(vib)   ...       0.02
freq.    1078.23  E(vib)   ...       0.02
freq.    1082.39  E(vib)   ...       0.02
freq.    1096.11  E(vib)   ...       0.02
freq.    1112.22  E(vib)   ...       0.01
freq.    1162.91  E(vib)   ...       0.01
freq.    1177.57  E(vib)   ...       0.01
freq.    1193.23  E(vib)   ...       0.01
freq.    1219.72  E(vib)   ...       0.01
freq.    1244.52  E(vib)   ...       0.01
freq.    1270.33  E(vib)   ...       0.01
freq.    1280.42  E(vib)   ...       0.01
freq.    1309.24  E(vib)   ...       0.01
freq.    1316.15  E(vib)   ...       0.01
freq.    1369.84  E(vib)   ...       0.01
freq.    1372.52  E(vib)   ...       0.01
freq.    1416.32  E(vib)   ...       0.00
freq.    1423.99  E(vib)   ...       0.00
freq.    1457.60  E(vib)   ...       0.00
freq.    1461.53  E(vib)   ...       0.00
freq.    1465.86  E(vib)   ...       0.00
freq.    1487.67  E(vib)   ...       0.00
freq.    1603.89  E(vib)   ...       0.00
freq.    1623.83  E(vib)   ...       0.00
freq.    1652.04  E(vib)   ...       0.00
freq.    1801.89  E(vib)   ...       0.00
freq.    1916.07  E(vib)   ...       0.00
freq.    2924.50  E(vib)   ...       0.00
freq.    2982.50  E(vib)   ...       0.00
freq.    3031.59  E(vib)   ...       0.00
freq.    3035.55  E(vib)   ...       0.00
freq.    3052.29  E(vib)   ...       0.00
freq.    3100.84  E(vib)   ...       0.00
freq.    3119.24  E(vib)   ...       0.00
freq.    3528.20  E(vib)   ...       0.00
freq.    3589.20  E(vib)   ...       0.00
freq.    3604.05  E(vib)   ...       0.00
freq.    3617.12  E(vib)   ...       0.00
freq.    3702.28  E(vib)   ...       0.00
freq.    3732.91  E(vib)   ...       0.00
freq.    3849.63  E(vib)   ...       0.00

------------
INNER ENERGY
------------

The inner energy is: U= E(el) + E(ZPE) + E(vib) + E(rot) + E(trans)
    E(el)   - is the total energy from the electronic structure calculation
              = E(kin-el) + E(nuc-el) + E(el-el) + E(nuc-nuc)
    E(ZPE)  - the the zero temperature vibrational energy from the frequency calculation
    E(vib)  - the the finite temperature correction to E(ZPE) due to population
              of excited vibrational states
    E(rot)  - is the rotational thermal energy
    E(trans)- is the translational thermal energy

Summary of contributions to the inner energy U:
Electronic energy                ...   -605.41515960 Eh
Zero point energy                ...      0.22314534 Eh     140.03 kcal/mol
Thermal vibrational correction   ...      0.01112146 Eh       6.98 kcal/mol
Thermal rotational correction    ...      0.00141627 Eh       0.89 kcal/mol
Thermal translational correction ...      0.00141627 Eh       0.89 kcal/mol
-----------------------------------------------------------------------
Total thermal energy                   -605.17806026 Eh

Summary of corrections to the electronic energy:
(perhaps to be used in another calculation)
Total thermal correction                  0.01395400 Eh       8.76 kcal/mol
Non-thermal (ZPE) correction              0.22314534 Eh     140.03 kcal/mol
-----------------------------------------------------------------------
Total correction                          0.23709934 Eh     148.78 kcal/mol

--------
ENTHALPY
--------

The enthalpy is H = U + kB*T
                kB is Boltzmann's constant
Total free energy                 ...   -605.17806026 Eh
Thermal Enthalpy correction       ...      0.00094421 Eh       0.59 kcal/mol
-----------------------------------------------------------------------
Total Enthalpy                    ...   -605.17711605 Eh

Vibrational entropy computed according to the QRRHO of S. Grimme
Chem.Eur.J. 2012 18 9955

check

-------
ENTROPY
-------

The entropy contributions are T*S = T*(S(el)+S(vib)+S(rot)+S(trans)
     S(el)   - electronic entropy
     S(vib)  - vibrational entropy
     S(rot)  - rotational entropy
     S(trans)- translational entropy
The entropies will be listed as mutliplied by the temperature to get
units of energy

Electronic entropy                ...      0.00000000 Eh      0.00 kcal/mol
Vibrational entropy               ...      0.01984006 Eh     12.45 kcal/mol
Rotational entropy                ...      0.01408147 Eh      8.84 kcal/mol
Translational entropy             ...      0.01965735 Eh     12.34 kcal/mol
-----------------------------------------------------------------------
Final entropy term                ...      0.05357888 Eh     33.62 kcal/mol

CAUTION: The rotational entropy is not quite correctly treated here
         because it includes a symmetry number that is not yet correctly
         implemented in ORCA!

                             ****ORCA TERMINATED NORMALLY****
TOTAL RUN TIME: 0 days 11 hours 6 minutes 54 seconds 978 msec
