                         Program Version 4.0.0 -  RELEASE  -
|  1> ! PBE0
|  2> ! opt anfreq
|  3> * xyzfile 0 1 glutamine.xyz **                         ****END OF INPUT****
 Total Charge           Charge          ....    0
 Multiplicity           Mult            ....    1
 Number of Electrons    NEL             ....   78
FINAL SINGLE POINT ENERGY      -530.772246349643
FINAL SINGLE POINT ENERGY      -530.781506934789
FINAL SINGLE POINT ENERGY      -530.783613523755
FINAL SINGLE POINT ENERGY      -530.783869012708
FINAL SINGLE POINT ENERGY      -530.784166442282
FINAL SINGLE POINT ENERGY      -530.784224824312
FINAL SINGLE POINT ENERGY      -530.784253639497
FINAL SINGLE POINT ENERGY      -530.784314013390
FINAL SINGLE POINT ENERGY      -530.784376779007
FINAL SINGLE POINT ENERGY      -530.784437857208
FINAL SINGLE POINT ENERGY      -530.784523443442
FINAL SINGLE POINT ENERGY      -530.784624789133
FINAL SINGLE POINT ENERGY      -530.784682885007
FINAL SINGLE POINT ENERGY      -530.784761621107
FINAL SINGLE POINT ENERGY      -530.784769786989
FINAL SINGLE POINT ENERGY      -530.784776660293
FINAL SINGLE POINT ENERGY      -530.784776790481
FINAL SINGLE POINT ENERGY      -530.784777374459
                    ***********************HURRAY********************

CARTESIAN COORDINATES (ANGSTROEM)
---------------------------------
  C      0.926288    0.027599    0.134922
  C      0.382640   -1.185120    0.868217
  C     -1.112413   -1.349241    0.651594
  O     -1.668266   -0.958544   -0.356200
  N     -1.771933   -1.997030    1.644811
  C      2.455262    0.056943    0.080438
  C      2.968113    1.265283   -0.715973
  O      3.782765    2.031012   -0.284775
  O      2.468752    1.415545   -1.950787
  N      3.023151   -0.011648    1.404611
  H      0.561474    0.951605    0.617353
  H      0.477060    0.024712   -0.872341
  H      0.645667   -1.146351    1.935317
  H      0.862004   -2.100711    0.475639
  H     -1.309922   -2.310980    2.484816
  H     -2.757965   -2.187596    1.522610
  H      2.785980   -0.840398   -0.480063
  H      1.793363    0.746768   -2.120862
  H      2.851882    0.877336    1.876606
  H      4.037679   -0.064314    1.331127

 Multiplicity           Mult            ....    1
 Number of Electrons    NEL             ....   78
 Basis Dimension        Dim             ....  190

ORBITAL ENERGIES
----------------

  NO   OCC          E(Eh)            E(eV)
   0   2.0000     -19.258951      -524.0627
   1   2.0000     -19.195263      -522.3297
   2   2.0000     -19.177602      -521.8491
   3   2.0000     -14.422204      -392.4481
   4   2.0000     -14.381770      -391.3479
   5   2.0000     -10.357151      -281.8324
   6   2.0000     -10.338101      -281.3140
   7   2.0000     -10.285271      -279.8765
   8   2.0000     -10.254572      -279.0411
   9   2.0000     -10.250636      -278.9340
  10   2.0000      -1.126459       -30.6525
  11   2.0000      -1.059735       -28.8368
  12   2.0000      -1.040628       -28.3169
  13   2.0000      -0.928194       -25.2574
  14   2.0000      -0.923638       -25.1335
  15   2.0000      -0.815083       -22.1795
  16   2.0000      -0.735656       -20.0182
  17   2.0000      -0.660422       -17.9710
  18   2.0000      -0.630790       -17.1647
  19   2.0000      -0.599941       -16.3252
  20   2.0000      -0.569307       -15.4916
  21   2.0000      -0.546935       -14.8829
  22   2.0000      -0.534661       -14.5489
  23   2.0000      -0.496089       -13.4993
  24   2.0000      -0.489309       -13.3148
  25   2.0000      -0.467070       -12.7096
  26   2.0000      -0.461404       -12.5554
  27   2.0000      -0.439583       -11.9616
  28   2.0000      -0.430116       -11.7040
  29   2.0000      -0.417632       -11.3644
  30   2.0000      -0.407187       -11.0801
  31   2.0000      -0.389928       -10.6105
  32   2.0000      -0.378232       -10.2922
  33   2.0000      -0.359849        -9.7920
  34   2.0000      -0.335757        -9.1364
  35   2.0000      -0.295221        -8.0334
  36   2.0000      -0.291469        -7.9313
  37   2.0000      -0.272938        -7.4270
  38   2.0000      -0.265876        -7.2349
  39   0.0000       0.011074         0.3014
  40   0.0000       0.032712         0.8901
  41   0.0000       0.042439         1.1548
  42   0.0000       0.053042         1.4433
  43   0.0000       0.081501         2.2178

MULLIKEN ATOMIC CHARGES
-----------------------
   0 C :   -0.086122
   1 C :   -0.042496
   2 C :    0.112206
   3 O :   -0.278198
   4 N :   -0.143966
   5 C :   -0.120149
   6 C :    0.201889
   7 O :   -0.220387
   8 O :   -0.175499
   9 N :   -0.213187
  10 H :    0.049682
  11 H :    0.051307
  12 H :    0.050936
  13 H :    0.061190
  14 H :    0.136170
  15 H :    0.145151
  16 H :    0.055342
  17 H :    0.184478
  18 H :    0.113918
  19 H :    0.117733
Sum of atomic charges:    0.0000000

LOEWDIN ATOMIC CHARGES
----------------------
   0 C :   -0.042799
   1 C :   -0.070153
   2 C :    0.064132
   3 O :   -0.228085
   4 N :   -0.012093
   5 C :   -0.048433
   6 C :    0.060961
   7 O :   -0.166925
   8 O :   -0.025965
   9 N :   -0.097029
  10 H :    0.036805
  11 H :    0.028160
  12 H :    0.034408
  13 H :    0.050272
  14 H :    0.080163
  15 H :    0.083527
  16 H :    0.037539
  17 H :    0.089252
  18 H :    0.061834
  19 H :    0.064429

  Mayer bond orders larger than 0.1
B(  0-C ,  1-C ) :   1.0678 B(  0-C ,  5-C ) :   1.0299 B(  0-C , 10-H ) :   0.9440
B(  0-C , 11-H ) :   0.9205 B(  1-C ,  2-C ) :   0.9422 B(  1-C , 12-H ) :   0.9358
B(  1-C , 13-H ) :   0.9166 B(  2-C ,  3-O ) :   2.0457 B(  2-C ,  4-N ) :   1.2565
B(  4-N , 14-H ) :   0.9433 B(  4-N , 15-H ) :   0.9389 B(  5-C ,  6-C ) :   0.9026
B(  5-C ,  9-N ) :   1.1010 B(  5-C , 16-H ) :   0.9025 B(  6-C ,  7-O ) :   2.1528
B(  6-C ,  8-O ) :   1.1988 B(  8-O , 17-H ) :   0.9542 B(  9-N , 18-H ) :   0.9648
B(  9-N , 19-H ) :   0.9642

FINAL SINGLE POINT ENERGY      -530.784778085207

DIPOLE MOMENT
-------------
                                X             Y             Z
Electronic contribution:      0.89229       3.56476      -3.91476
Nuclear contribution   :     -1.46598      -5.09124       5.01839
                        -----------------------------------------
Total Dipole Moment    :     -0.57369      -1.52648       1.10363
                        -----------------------------------------
Magnitude (a.u.)       :      1.96908
Magnitude (Debye)      :      5.00500

VIBRATIONAL FREQUENCIES
-----------------------

   0:         0.00 cm**-1
   1:         0.00 cm**-1
   2:         0.00 cm**-1
   3:         0.00 cm**-1
   4:         0.00 cm**-1
   5:         0.00 cm**-1
   6:        40.68 cm**-1
   7:        45.92 cm**-1
   8:        64.07 cm**-1
   9:       100.98 cm**-1
  10:       128.37 cm**-1
  11:       204.45 cm**-1
  12:       242.05 cm**-1
  13:       260.26 cm**-1
  14:       284.61 cm**-1
  15:       320.76 cm**-1
  16:       407.77 cm**-1
  17:       444.35 cm**-1
  18:       509.28 cm**-1
  19:       514.57 cm**-1
  20:       537.00 cm**-1
  21:       608.88 cm**-1
  22:       664.12 cm**-1
  23:       686.52 cm**-1
  24:       741.69 cm**-1
  25:       805.18 cm**-1
  26:       867.95 cm**-1
  27:       898.80 cm**-1
  28:       945.64 cm**-1
  29:       988.98 cm**-1
  30:      1024.87 cm**-1
  31:      1089.66 cm**-1
  32:      1109.92 cm**-1
  33:      1133.99 cm**-1
  34:      1174.70 cm**-1
  35:      1207.98 cm**-1
  36:      1232.64 cm**-1
  37:      1267.56 cm**-1
  38:      1283.48 cm**-1
  39:      1326.30 cm**-1
  40:      1353.68 cm**-1
  41:      1386.97 cm**-1
  42:      1413.04 cm**-1
  43:      1434.38 cm**-1
  44:      1443.27 cm**-1
  45:      1460.54 cm**-1
  46:      1597.15 cm**-1
  47:      1651.34 cm**-1
  48:      1847.41 cm**-1
  49:      1920.34 cm**-1
  50:      3021.40 cm**-1
  51:      3052.35 cm**-1
  52:      3059.49 cm**-1
  53:      3108.49 cm**-1
  54:      3140.74 cm**-1
  55:      3529.28 cm**-1
  56:      3606.10 cm**-1
  57:      3627.73 cm**-1
  58:      3771.66 cm**-1
  59:      3849.49 cm**-1

IR SPECTRUM
-----------

 Mode    freq (cm**-1)   T**2         TX         TY         TZ
-------------------------------------------------------------------
   6:        40.68   15.485541  (  2.262473  -2.710945  -1.737106)
   7:        45.92    7.308302  ( -2.528862   0.056421   0.953928)
   8:        64.07    3.307764  ( -0.159051   1.787314   0.296607)
   9:       100.98    3.588613  ( -1.391019  -0.761877   1.035964)
  10:       128.37    2.731909  ( -1.262638  -1.057508  -0.139033)
  11:       204.45   40.779717  (  5.829622  -2.455806  -0.874207)
  12:       242.05    7.163657  ( -1.254012   0.500717  -2.310929)
  13:       260.26    2.980071  ( -1.001042  -0.536032  -1.300252)
  14:       284.61  194.355105  ( -3.342741  12.050948   6.160831)
  15:       320.76   22.829155  (  0.693987   0.784680  -4.661739)
  16:       407.77   30.052636  ( -4.762992   2.435691   1.197476)
  17:       444.35    4.256653  ( -0.421347   0.483330   1.960998)
  18:       509.28   67.132970  ( -5.891780   3.653779   4.366897)
  19:       514.57    1.537825  (  0.968930   0.635916   0.441146)
  20:       537.00   16.982988  (  0.491068  -3.916564  -1.184216)
  21:       608.88   26.194143  ( -4.832439   0.089004   1.683377)
  22:       664.12   14.277920  ( -1.798138  -2.548667  -2.132819)
  23:       686.52    3.285851  (  0.050249  -1.809426   0.096459)
  24:       741.69    5.190949  (  1.557346  -0.721552   1.498328)
  25:       805.18    5.925136  ( -0.127751   2.008822   1.368740)
  26:       867.95   13.162210  ( -1.317896  -1.777067   2.875307)
  27:       898.80   33.060158  (  1.028863  -3.773863   4.214209)
  28:       945.64   38.033744  (  0.018583   3.993805  -4.699247)
  29:       988.98   98.100060  (  0.209646  -3.537604   9.248863)
  30:      1024.87    6.212458  ( -1.104486   0.858336  -2.062966)
  31:      1089.66    2.167101  (  1.382384   0.424705   0.275211)
  32:      1109.92    3.641451  (  0.921844   0.513602  -1.589927)
  33:      1133.99    2.168315  ( -0.761132   0.631249  -1.091108)
  34:      1174.70    1.229580  (  0.924551  -0.321312  -0.521099)
  35:      1207.98   22.132735  (  2.112914   0.154480   4.200532)
  36:      1232.64   12.763675  ( -0.755851  -1.380824   3.207131)
  37:      1267.56   53.619182  (  3.198947  -0.746850   6.544321)
  38:      1283.48   37.701648  ( -2.116960   2.060302  -5.382870)
  39:      1326.30   85.734495  (  2.810671   4.796215  -7.404792)
  40:      1353.68  182.982790  (  0.183548   4.091903 -12.892069)
  41:      1386.97   63.944937  (  4.449027  -0.048144   6.644455)
  42:      1413.04   35.360005  (  2.133190   2.719686  -4.838679)
  43:      1434.38   67.398973  ( -7.852840  -1.916995   1.434224)
  44:      1443.27   16.092004  (  2.748502   2.207436  -1.914411)
  45:      1460.54   21.183352  (  3.736175  -1.336075   2.332221)
  46:      1597.15  172.086564  (  9.418283   5.924238  -6.948806)
  47:      1651.34   24.028991  (  2.751516   3.153102   2.552665)
  48:      1847.41  302.711959  (  3.543052  -7.381360  15.351686)
  49:      1920.34  285.288689  (-12.076363 -10.625918  -5.151700)
  50:      3021.40   14.470369  ( -0.960968   2.067175   3.045275)
  51:      3052.35    0.504401  ( -0.313221   0.574602  -0.275910)
  52:      3059.49   24.962157  ( -0.064275   4.841576  -1.231735)
  53:      3108.49   12.399228  ( -1.805778   0.716090   2.936939)
  54:      3140.74   11.117414  ( -0.825875   0.051598   3.229966)
  55:      3529.28    5.529491  ( -1.531338  -1.636300  -0.712050)
  56:      3606.10    8.487856  ( -2.443553   1.437843   0.670455)
  57:      3627.73   56.173322  ( -4.732681  -3.617911   4.548162)
  58:      3771.66   54.650618  (  5.938240  -0.715025   4.344728)
  59:      3849.49   70.690949  (  6.379043   5.186770   1.759593)

--------------------------
THERMOCHEMISTRY AT 298.15K
--------------------------

Temperature         ... 298.15 K
Pressure            ... 1.00 atm
Total Mass          ... 146.15 AMU

Throughout the following assumptions are being made:
  (1) The electronic state is orbitally nondegenerate
  (2) There are no thermally accessible electronically excited states
  (3) Hindered rotations indicated by low frequency modes are not
      treated as such but are treated as vibrations and this may
      cause some error
  (4) All equations used are the standard statistical mechanics
      equations for an ideal gas
  (5) All vibrations are strictly harmonic

freq.      40.68  E(vib)   ...       0.54
freq.      45.92  E(vib)   ...       0.53
freq.      64.07  E(vib)   ...       0.51
freq.     100.98  E(vib)   ...       0.46
freq.     128.37  E(vib)   ...       0.43
freq.     204.45  E(vib)   ...       0.35
freq.     242.05  E(vib)   ...       0.31
freq.     260.26  E(vib)   ...       0.30
freq.     284.61  E(vib)   ...       0.28
freq.     320.76  E(vib)   ...       0.25
freq.     407.77  E(vib)   ...       0.19
freq.     444.35  E(vib)   ...       0.17
freq.     509.28  E(vib)   ...       0.14
freq.     514.57  E(vib)   ...       0.13
freq.     537.00  E(vib)   ...       0.12
freq.     608.88  E(vib)   ...       0.10
freq.     664.12  E(vib)   ...       0.08
freq.     686.52  E(vib)   ...       0.07
freq.     741.69  E(vib)   ...       0.06
freq.     805.18  E(vib)   ...       0.05
freq.     867.95  E(vib)   ...       0.04
freq.     898.80  E(vib)   ...       0.03
freq.     945.64  E(vib)   ...       0.03
freq.     988.98  E(vib)   ...       0.02
freq.    1024.87  E(vib)   ...       0.02
freq.    1089.66  E(vib)   ...       0.02
freq.    1109.92  E(vib)   ...       0.02
freq.    1133.99  E(vib)   ...       0.01
freq.    1174.70  E(vib)   ...       0.01
freq.    1207.98  E(vib)   ...       0.01
freq.    1232.64  E(vib)   ...       0.01
freq.    1267.56  E(vib)   ...       0.01
freq.    1283.48  E(vib)   ...       0.01
freq.    1326.30  E(vib)   ...       0.01
freq.    1353.68  E(vib)   ...       0.01
freq.    1386.97  E(vib)   ...       0.00
freq.    1413.04  E(vib)   ...       0.00
freq.    1434.38  E(vib)   ...       0.00
freq.    1443.27  E(vib)   ...       0.00
freq.    1460.54  E(vib)   ...       0.00
freq.    1597.15  E(vib)   ...       0.00
freq.    1651.34  E(vib)   ...       0.00
freq.    1847.41  E(vib)   ...       0.00
freq.    1920.34  E(vib)   ...       0.00
freq.    3021.40  E(vib)   ...       0.00
freq.    3052.35  E(vib)   ...       0.00
freq.    3059.49  E(vib)   ...       0.00
freq.    3108.49  E(vib)   ...       0.00
freq.    3140.74  E(vib)   ...       0.00
freq.    3529.28  E(vib)   ...       0.00
freq.    3606.10  E(vib)   ...       0.00
freq.    3627.73  E(vib)   ...       0.00
freq.    3771.66  E(vib)   ...       0.00
freq.    3849.49  E(vib)   ...       0.00

------------
INNER ENERGY
------------

The inner energy is: U= E(el) + E(ZPE) + E(vib) + E(rot) + E(trans)
    E(el)   - is the total energy from the electronic structure calculation
              = E(kin-el) + E(nuc-el) + E(el-el) + E(nuc-nuc)
    E(ZPE)  - the the zero temperature vibrational energy from the frequency calculation
    E(vib)  - the the finite temperature correction to E(ZPE) due to population
              of excited vibrational states
    E(rot)  - is the rotational thermal energy
    E(trans)- is the translational thermal energy

Summary of contributions to the inner energy U:
Electronic energy                ...   -530.78477809 Eh
Zero point energy                ...      0.16502787 Eh     103.56 kcal/mol
Thermal vibrational correction   ...      0.00849035 Eh       5.33 kcal/mol
Thermal rotational correction    ...      0.00141627 Eh       0.89 kcal/mol
Thermal translational correction ...      0.00141627 Eh       0.89 kcal/mol
-----------------------------------------------------------------------
Total thermal energy                   -530.60842732 Eh

Summary of corrections to the electronic energy:
(perhaps to be used in another calculation)
Total thermal correction                  0.01132290 Eh       7.11 kcal/mol
Non-thermal (ZPE) correction              0.16502787 Eh     103.56 kcal/mol
-----------------------------------------------------------------------
Total correction                          0.17635076 Eh     110.66 kcal/mol

--------
ENTHALPY
--------

The enthalpy is H = U + kB*T
                kB is Boltzmann's constant
Total free energy                 ...   -530.60842732 Eh
Thermal Enthalpy correction       ...      0.00094421 Eh       0.59 kcal/mol
-----------------------------------------------------------------------
Total Enthalpy                    ...   -530.60748311 Eh

Vibrational entropy computed according to the QRRHO of S. Grimme
Chem.Eur.J. 2012 18 9955

check

-------
ENTROPY
-------

The entropy contributions are T*S = T*(S(el)+S(vib)+S(rot)+S(trans)
     S(el)   - electronic entropy
     S(vib)  - vibrational entropy
     S(rot)  - rotational entropy
     S(trans)- translational entropy
The entropies will be listed as mutliplied by the temperature to get
units of energy

Electronic entropy                ...      0.00000000 Eh      0.00 kcal/mol
Vibrational entropy               ...      0.01500279 Eh      9.41 kcal/mol
Rotational entropy                ...      0.01336072 Eh      8.38 kcal/mol
Translational entropy             ...      0.01940863 Eh     12.18 kcal/mol
-----------------------------------------------------------------------
Final entropy term                ...      0.04777214 Eh     29.98 kcal/mol

CAUTION: The rotational entropy is not quite correctly treated here
         because it includes a symmetry number that is not yet correctly
         implemented in ORCA!
For a nonlinear molecule the correct rotational entropy is:
    S(rot) = R*(ln(qrot/sn)+1.5)
    R    = 8.31441 J/mol/K = 1.987191683e-3 kcal/mol/K
    qrot = 935848.6330651
    sn is the rotational symmetry number. We have assumed 3 here
       if it is different for your molecule then you should correct
       the printed rotational entropy by manually evaluating the equation
       as given above

For convenience we print out the resulting values for sn=1 - 12:
 sn= 1  qrot/sn=  935848.6331 T*S(rot)=     9.03 kcal/mol T*S(tot)=    30.63 kcal/mol
 sn= 2  qrot/sn=  467924.3165 T*S(rot)=     8.62 kcal/mol T*S(tot)=    30.22 kcal/mol
 sn= 3  qrot/sn=  311949.5444 T*S(rot)=     8.38 kcal/mol T*S(tot)=    29.98 kcal/mol
 sn= 4  qrot/sn=  233962.1583 T*S(rot)=     8.21 kcal/mol T*S(tot)=    29.81 kcal/mol
 sn= 5  qrot/sn=  187169.7266 T*S(rot)=     8.08 kcal/mol T*S(tot)=    29.67 kcal/mol
 sn= 6  qrot/sn=  155974.7722 T*S(rot)=     7.97 kcal/mol T*S(tot)=    29.57 kcal/mol
 sn= 7  qrot/sn=  133692.6619 T*S(rot)=     7.88 kcal/mol T*S(tot)=    29.48 kcal/mol
 sn= 8  qrot/sn=  116981.0791 T*S(rot)=     7.80 kcal/mol T*S(tot)=    29.40 kcal/mol

                             ****ORCA TERMINATED NORMALLY****
TOTAL RUN TIME: 0 days 1 hours 10 minutes 34 seconds 297 msec
