                         Program Version 4.0.0 -  RELEASE  -
|  1> ! PBE0
|  2> ! opt anfreq
|  3> * xyzfile 0 1 threonine.xyz **                         ****END OF INPUT****
 Total Charge           Charge          ....    0
 Multiplicity           Mult            ....    1
 Number of Electrons    NEL             ....   64
FINAL SINGLE POINT ENERGY      -437.454866253421
FINAL SINGLE POINT ENERGY      -437.465945503538
FINAL SINGLE POINT ENERGY      -437.471754515742
FINAL SINGLE POINT ENERGY      -437.475096102833
FINAL SINGLE POINT ENERGY      -437.475412788503
FINAL SINGLE POINT ENERGY      -437.476360278955
FINAL SINGLE POINT ENERGY      -437.476526918068
FINAL SINGLE POINT ENERGY      -437.476572117631
FINAL SINGLE POINT ENERGY      -437.476638454820
FINAL SINGLE POINT ENERGY      -437.476648039499
FINAL SINGLE POINT ENERGY      -437.476654222109
FINAL SINGLE POINT ENERGY      -437.476657287282
                    ***********************HURRAY********************

CARTESIAN COORDINATES (ANGSTROEM)
---------------------------------
  C      1.026557    0.131294    0.047334
  C      2.535822    0.187314   -0.030158
  C      3.089966   -0.311351   -1.377938
  C      4.633406   -0.297574   -1.441556
  O      5.238397   -1.181496   -1.986326
  O      5.244043    0.749655   -0.900997
  N      2.540603   -1.599583   -1.722582
  O      3.010986    1.507836    0.231599
  H      0.670490   -0.891625   -0.125276
  H      0.576039    0.766293   -0.734979
  H      0.681274    0.483315    1.030393
  H      2.966178   -0.431095    0.777180
  H      2.751100    0.421271   -2.138161
  H      4.573628    1.296905   -0.433391
  H      2.948247   -2.303898   -1.106244
  H      2.884962   -1.858235   -2.645713
  H      2.454362    2.127645   -0.257124

 Multiplicity           Mult            ....    1
 Number of Electrons    NEL             ....   64
 Basis Dimension        Dim             ....  157

ORBITAL ENERGIES
----------------

  NO   OCC          E(Eh)            E(eV)
   0   2.0000     -19.255466      -523.9679
   1   2.0000     -19.237278      -523.4729
   2   2.0000     -19.184880      -522.0471
   3   2.0000     -14.383382      -391.3917
   4   2.0000     -10.348888      -281.6076
   5   2.0000     -10.312469      -280.6165
   6   2.0000     -10.282789      -279.8089
   7   2.0000     -10.244682      -278.7720
   8   2.0000      -1.115597       -30.3569
   9   2.0000      -1.082003       -29.4428
  10   2.0000      -1.026830       -27.9415
  11   2.0000      -0.922662       -25.1069
  12   2.0000      -0.795660       -21.6510
  13   2.0000      -0.723934       -19.6992
  14   2.0000      -0.652820       -17.7641
  15   2.0000      -0.618025       -16.8173
  16   2.0000      -0.568890       -15.4803
  17   2.0000      -0.545370       -14.8403
  18   2.0000      -0.505128       -13.7452
  19   2.0000      -0.495173       -13.4743
  20   2.0000      -0.474524       -12.9125
  21   2.0000      -0.455385       -12.3917
  22   2.0000      -0.447776       -12.1846
  23   2.0000      -0.419061       -11.4032
  24   2.0000      -0.408651       -11.1200
  25   2.0000      -0.403865       -10.9897
  26   2.0000      -0.400928       -10.9098
  27   2.0000      -0.361320        -9.8320
  28   2.0000      -0.330152        -8.9839
  29   2.0000      -0.321856        -8.7582
  30   2.0000      -0.286093        -7.7850
  31   2.0000      -0.263313        -7.1651
  32   0.0000       0.017939         0.4881
  33   0.0000       0.043778         1.1913
  34   0.0000       0.068665         1.8685
  35   0.0000       0.079168         2.1543
  36   0.0000       0.101834         2.7710

MULLIKEN ATOMIC CHARGES
-----------------------
   0 C :   -0.003833
   1 C :    0.032889
   2 C :   -0.107036
   3 C :    0.207373
   4 O :   -0.235642
   5 O :   -0.195883
   6 N :   -0.212669
   7 O :   -0.342621
   8 H :    0.065217
   9 H :    0.026466
  10 H :    0.056935
  11 H :    0.048054
  12 H :    0.048981
  13 H :    0.186239
  14 H :    0.113707
  15 H :    0.121818
  16 H :    0.190005
Sum of atomic charges:    0.0000000

LOEWDIN ATOMIC CHARGES
----------------------
   0 C :   -0.073788
   1 C :    0.048785
   2 C :   -0.060571
   3 C :    0.052668
   4 O :   -0.182269
   5 O :   -0.034845
   6 N :   -0.094863
   7 O :   -0.098171
   8 H :    0.044879
   9 H :    0.028960
  10 H :    0.034807
  11 H :    0.030928
  12 H :    0.036610
  13 H :    0.053167
  14 H :    0.062402
  15 H :    0.066915
  16 H :    0.084385

  Mayer bond orders larger than 0.1
B(  0-C ,  1-C ) :   1.0876 B(  0-C ,  8-H ) :   0.9485 B(  0-C ,  9-H ) :   0.9513
B(  0-C , 10-H ) :   0.9641 B(  1-C ,  2-C ) :   0.9708 B(  1-C ,  7-O ) :   0.9126
B(  1-C , 11-H ) :   0.9280 B(  2-C ,  3-C ) :   0.8874 B(  2-C ,  6-N ) :   1.1090
B(  2-C , 12-H ) :   0.8914 B(  3-C ,  4-O ) :   2.1271 B(  3-C ,  5-O ) :   1.2489
B(  5-O , 13-H ) :   0.8920 B(  6-N , 14-H ) :   0.9656 B(  6-N , 15-H ) :   0.9544
B(  7-O , 13-H ) :   0.1488 B(  7-O , 16-H ) :   0.9637

FINAL SINGLE POINT ENERGY      -437.476658155350

DIPOLE MOMENT
-------------
                                X             Y             Z
Electronic contribution:      8.06209       0.39089      -1.86760
Nuclear contribution   :     -9.61702       0.28847       2.22091
                        -----------------------------------------
Total Dipole Moment    :     -1.55493       0.67935       0.35331
                        -----------------------------------------
Magnitude (a.u.)       :      1.73325
Magnitude (Debye)      :      4.40556

VIBRATIONAL FREQUENCIES
-----------------------

   0:         0.00 cm**-1
   1:         0.00 cm**-1
   2:         0.00 cm**-1
   3:         0.00 cm**-1
   4:         0.00 cm**-1
   5:         0.00 cm**-1
   6:        73.29 cm**-1
   7:        95.50 cm**-1
   8:       174.80 cm**-1
   9:       229.93 cm**-1
  10:       262.17 cm**-1
  11:       321.15 cm**-1
  12:       323.16 cm**-1
  13:       371.13 cm**-1
  14:       395.27 cm**-1
  15:       421.48 cm**-1
  16:       489.73 cm**-1
  17:       571.54 cm**-1
  18:       614.48 cm**-1
  19:       753.79 cm**-1
  20:       871.84 cm**-1
  21:       891.70 cm**-1
  22:       909.89 cm**-1
  23:       936.60 cm**-1
  24:      1008.51 cm**-1
  25:      1042.72 cm**-1
  26:      1097.94 cm**-1
  27:      1140.93 cm**-1
  28:      1200.60 cm**-1
  29:      1214.12 cm**-1
  30:      1246.18 cm**-1
  31:      1296.89 cm**-1
  32:      1321.57 cm**-1
  33:      1366.01 cm**-1
  34:      1382.91 cm**-1
  35:      1406.82 cm**-1
  36:      1420.52 cm**-1
  37:      1455.52 cm**-1
  38:      1464.01 cm**-1
  39:      1471.56 cm**-1
  40:      1655.68 cm**-1
  41:      1907.93 cm**-1
  42:      3019.98 cm**-1
  43:      3051.90 cm**-1
  44:      3073.73 cm**-1
  45:      3148.13 cm**-1
  46:      3198.11 cm**-1
  47:      3488.19 cm**-1
  48:      3531.12 cm**-1
  49:      3606.00 cm**-1
  50:      3845.89 cm**-1

IR SPECTRUM
-----------

 Mode    freq (cm**-1)   T**2         TX         TY         TZ
-------------------------------------------------------------------
   6:        73.29    8.258838  (  0.456645  -0.433354   2.804018)
   7:        95.50    1.490749  (  0.922060  -0.790791  -0.123309)
   8:       174.80   40.721389  ( -0.947600   0.350429  -6.300845)
   9:       229.93    0.563234  (  0.407070  -0.606211  -0.173310)
  10:       262.17   11.381271  (  2.708135  -0.360336  -1.979250)
  11:       321.15   12.261598  (  0.558271  -3.240204   1.204579)
  12:       323.16   21.557137  (  3.513025   2.861294   1.014293)
  13:       371.13    2.210507  (  1.414358  -0.194910   0.414860)
  14:       395.27   43.938857  ( -3.535866   2.048817   5.219086)
  15:       421.48   44.643946  ( -5.018801   1.353130   4.198169)
  16:       489.73   25.706886  ( -3.135971   2.427196   3.159318)
  17:       571.54    7.673796  (  1.797005  -1.153588  -1.764598)
  18:       614.48    6.490411  (  1.740069  -1.831299   0.330021)
  19:       753.79    7.786832  (  1.160977   1.711414   1.873507)
  20:       871.84    7.357371  (  2.505028  -0.868811   0.572163)
  21:       891.70   70.753607  (  4.368104   2.424081   6.767356)
  22:       909.89   84.050730  ( -5.445899  -4.235594   6.037603)
  23:       936.60   22.893099  (  3.610989   2.044446   2.382037)
  24:      1008.51   73.232108  ( -7.279935  -4.424163  -0.813288)
  25:      1042.72   52.937248  ( -3.863185  -6.037009   1.252027)
  26:      1097.94   55.570278  (  0.754991   7.222816   1.682617)
  27:      1140.93   24.614292  ( -1.380440  -4.564103  -1.370269)
  28:      1200.60    9.978083  (  2.728833   0.886067  -1.321529)
  29:      1214.12    5.686510  ( -0.407663  -1.692491  -1.629660)
  30:      1246.18   55.034775  ( -4.312374  -5.073956  -3.270042)
  31:      1296.89    4.095493  ( -0.984983   1.730738   0.360344)
  32:      1321.57    2.192975  (  1.148475   0.458653   0.814627)
  33:      1366.01    2.236716  ( -0.977646  -0.983319  -0.560364)
  34:      1382.91   14.568647  ( -1.860373   2.793374   1.817889)
  35:      1406.82    2.968511  (  0.390519   1.363617  -0.978036)
  36:      1420.52   45.162577  (  5.034494   4.438336  -0.342960)
  37:      1455.52   12.278775  (  1.789883  -0.570893   2.957900)
  38:      1464.01  126.617699  ( -7.959980  -7.032089  -3.715662)
  39:      1471.56  247.554281  ( 11.348396  10.599844   2.532093)
  40:      1655.68   26.751525  ( -2.499342   4.452354   0.825445)
  41:      1907.93  334.401424  ( -9.764867  12.879107   8.554379)
  42:      3019.98   12.940401  ( -0.049714   3.265592  -1.507925)
  43:      3051.90   10.727223  ( -2.596823   1.992706   0.113375)
  44:      3073.73   20.368674  (  1.639954  -3.114473   2.824763)
  45:      3148.13   16.881036  ( -0.367929  -1.084323   3.945872)
  46:      3198.11    1.085721  (  0.290471  -0.913163  -0.409246)
  47:      3488.19  561.282878  ( 17.341626 -11.371829 -11.455671)
  48:      3531.12    4.222844  (  1.145846  -1.583662  -0.633953)
  49:      3606.00   11.629835  (  0.372654   0.045176  -3.389531)
  50:      3845.89   45.493702  (  3.287404  -5.491186   2.129216)

--------------------------
THERMOCHEMISTRY AT 298.15K
--------------------------

Temperature         ... 298.15 K
Pressure            ... 1.00 atm
Total Mass          ... 119.12 AMU

Throughout the following assumptions are being made:
  (1) The electronic state is orbitally nondegenerate
  (2) There are no thermally accessible electronically excited states
  (3) Hindered rotations indicated by low frequency modes are not
      treated as such but are treated as vibrations and this may
      cause some error
  (4) All equations used are the standard statistical mechanics
      equations for an ideal gas
  (5) All vibrations are strictly harmonic

freq.      73.29  E(vib)   ...       0.49
freq.      95.50  E(vib)   ...       0.47
freq.     174.80  E(vib)   ...       0.38
freq.     229.93  E(vib)   ...       0.32
freq.     262.17  E(vib)   ...       0.29
freq.     321.15  E(vib)   ...       0.25
freq.     323.16  E(vib)   ...       0.25
freq.     371.13  E(vib)   ...       0.21
freq.     395.27  E(vib)   ...       0.20
freq.     421.48  E(vib)   ...       0.18
freq.     489.73  E(vib)   ...       0.15
freq.     571.54  E(vib)   ...       0.11
freq.     614.48  E(vib)   ...       0.10
freq.     753.79  E(vib)   ...       0.06
freq.     871.84  E(vib)   ...       0.04
freq.     891.70  E(vib)   ...       0.03
freq.     909.89  E(vib)   ...       0.03
freq.     936.60  E(vib)   ...       0.03
freq.    1008.51  E(vib)   ...       0.02
freq.    1042.72  E(vib)   ...       0.02
freq.    1097.94  E(vib)   ...       0.02
freq.    1140.93  E(vib)   ...       0.01
freq.    1200.60  E(vib)   ...       0.01
freq.    1214.12  E(vib)   ...       0.01
freq.    1246.18  E(vib)   ...       0.01
freq.    1296.89  E(vib)   ...       0.01
freq.    1321.57  E(vib)   ...       0.01
freq.    1366.01  E(vib)   ...       0.01
freq.    1382.91  E(vib)   ...       0.01
freq.    1406.82  E(vib)   ...       0.00
freq.    1420.52  E(vib)   ...       0.00
freq.    1455.52  E(vib)   ...       0.00
freq.    1464.01  E(vib)   ...       0.00
freq.    1471.56  E(vib)   ...       0.00
freq.    1655.68  E(vib)   ...       0.00
freq.    1907.93  E(vib)   ...       0.00
freq.    3019.98  E(vib)   ...       0.00
freq.    3051.90  E(vib)   ...       0.00
freq.    3073.73  E(vib)   ...       0.00
freq.    3148.13  E(vib)   ...       0.00
freq.    3198.11  E(vib)   ...       0.00
freq.    3488.19  E(vib)   ...       0.00
freq.    3531.12  E(vib)   ...       0.00
freq.    3606.00  E(vib)   ...       0.00
freq.    3845.89  E(vib)   ...       0.00

------------
INNER ENERGY
------------

The inner energy is: U= E(el) + E(ZPE) + E(vib) + E(rot) + E(trans)
    E(el)   - is the total energy from the electronic structure calculation
              = E(kin-el) + E(nuc-el) + E(el-el) + E(nuc-nuc)
    E(ZPE)  - the the zero temperature vibrational energy from the frequency calculation
    E(vib)  - the the finite temperature correction to E(ZPE) due to population
              of excited vibrational states
    E(rot)  - is the rotational thermal energy
    E(trans)- is the translational thermal energy

Summary of contributions to the inner energy U:
Electronic energy                ...   -437.47665816 Eh
Zero point energy                ...      0.14300270 Eh      89.74 kcal/mol
Thermal vibrational correction   ...      0.00594506 Eh       3.73 kcal/mol
Thermal rotational correction    ...      0.00141627 Eh       0.89 kcal/mol
Thermal translational correction ...      0.00141627 Eh       0.89 kcal/mol
-----------------------------------------------------------------------
Total thermal energy                   -437.32487785 Eh

Summary of corrections to the electronic energy:
(perhaps to be used in another calculation)
Total thermal correction                  0.00877761 Eh       5.51 kcal/mol
Non-thermal (ZPE) correction              0.14300270 Eh      89.74 kcal/mol
-----------------------------------------------------------------------
Total correction                          0.15178030 Eh      95.24 kcal/mol

--------
ENTHALPY
--------

The enthalpy is H = U + kB*T
                kB is Boltzmann's constant
Total free energy                 ...   -437.32487785 Eh
Thermal Enthalpy correction       ...      0.00094421 Eh       0.59 kcal/mol
-----------------------------------------------------------------------
Total Enthalpy                    ...   -437.32393364 Eh

Vibrational entropy computed according to the QRRHO of S. Grimme
Chem.Eur.J. 2012 18 9955

check

-------
ENTROPY
-------

The entropy contributions are T*S = T*(S(el)+S(vib)+S(rot)+S(trans)
     S(el)   - electronic entropy
     S(vib)  - vibrational entropy
     S(rot)  - rotational entropy
     S(trans)- translational entropy
The entropies will be listed as mutliplied by the temperature to get
units of energy

Electronic entropy                ...      0.00000000 Eh      0.00 kcal/mol
Vibrational entropy               ...      0.00998618 Eh      6.27 kcal/mol
Rotational entropy                ...      0.01245439 Eh      7.82 kcal/mol
Translational entropy             ...      0.01911903 Eh     12.00 kcal/mol
-----------------------------------------------------------------------
Final entropy term                ...      0.04155961 Eh     26.08 kcal/mol

CAUTION: The rotational entropy is not quite correctly treated here
         because it includes a symmetry number that is not yet correctly
         implemented in ORCA!
For a nonlinear molecule the correct rotational entropy is:
    S(rot) = R*(ln(qrot/sn)+1.5)
    R    = 8.31441 J/mol/K = 1.987191683e-3 kcal/mol/K
    qrot = 358360.7270108
    sn is the rotational symmetry number. We have assumed 3 here
       if it is different for your molecule then you should correct
       the printed rotational entropy by manually evaluating the equation
       as given above

For convenience we print out the resulting values for sn=1 - 12:
 sn= 1  qrot/sn=  358360.7270 T*S(rot)=     8.47 kcal/mol T*S(tot)=    26.73 kcal/mol
 sn= 2  qrot/sn=  179180.3635 T*S(rot)=     8.06 kcal/mol T*S(tot)=    26.32 kcal/mol
 sn= 3  qrot/sn=  119453.5757 T*S(rot)=     7.82 kcal/mol T*S(tot)=    26.08 kcal/mol
 sn= 4  qrot/sn=   89590.1818 T*S(rot)=     7.64 kcal/mol T*S(tot)=    25.91 kcal/mol
 sn= 5  qrot/sn=   71672.1454 T*S(rot)=     7.51 kcal/mol T*S(tot)=    25.78 kcal/mol
 sn= 6  qrot/sn=   59726.7878 T*S(rot)=     7.40 kcal/mol T*S(tot)=    25.67 kcal/mol
 sn= 7  qrot/sn=   51194.3896 T*S(rot)=     7.31 kcal/mol T*S(tot)=    25.58 kcal/mol
 sn= 8  qrot/sn=   44795.0909 T*S(rot)=     7.23 kcal/mol T*S(tot)=    25.50 kcal/mol
 sn= 9  qrot/sn=   39817.8586 T*S(rot)=     7.16 kcal/mol T*S(tot)=    25.43 kcal/mol
 sn=10  qrot/sn=   35836.0727 T*S(rot)=     7.10 kcal/mol T*S(tot)=    25.37 kcal/mol
 sn=11  qrot/sn=   32578.2479 T*S(rot)=     7.05 kcal/mol T*S(tot)=    25.31 kcal/mol
 sn=12  qrot/sn=   29863.3939 T*S(rot)=     6.99 kcal/mol T*S(tot)=    25.26 kcal/mol

-------------------
GIBBS FREE ENTHALPY
-------------------

                             ****ORCA TERMINATED NORMALLY****
TOTAL RUN TIME: 0 days 0 hours 58 minutes 7 seconds 404 msec
