                         Program Version 4.0.0 -  RELEASE  -
|  1> ! PBE0
|  2> ! opt anfreq
|  3> * xyzfile 0 1 serine.xyz **                         ****END OF INPUT****
 Total Charge           Charge          ....    0
 Multiplicity           Mult            ....    1
 Number of Electrons    NEL             ....   56
FINAL SINGLE POINT ENERGY      -398.214113371276
FINAL SINGLE POINT ENERGY      -398.224473679280
FINAL SINGLE POINT ENERGY      -398.227150948247
FINAL SINGLE POINT ENERGY      -398.227858385781
FINAL SINGLE POINT ENERGY      -398.228797425458
FINAL SINGLE POINT ENERGY      -398.229251020521
FINAL SINGLE POINT ENERGY      -398.229864998182
FINAL SINGLE POINT ENERGY      -398.230515845060
FINAL SINGLE POINT ENERGY      -398.231129026742
FINAL SINGLE POINT ENERGY      -398.231755504084
FINAL SINGLE POINT ENERGY      -398.232856029115
FINAL SINGLE POINT ENERGY      -398.233052819171
FINAL SINGLE POINT ENERGY      -398.233064703471
FINAL SINGLE POINT ENERGY      -398.233071099807
FINAL SINGLE POINT ENERGY      -398.233075804562
FINAL SINGLE POINT ENERGY      -398.233080367160
FINAL SINGLE POINT ENERGY      -398.233086298158
FINAL SINGLE POINT ENERGY      -398.233091129184
FINAL SINGLE POINT ENERGY      -398.233093802655
                    ***********************HURRAY********************

CARTESIAN COORDINATES (ANGSTROEM)
---------------------------------
  C      1.190874   -0.211441   -0.051426
  C      0.540416   -1.245682   -0.966037
  C      0.974757   -2.686453   -0.636574
  O      0.185363   -3.589964   -0.585694
  O      2.277324   -2.869578   -0.437850
  N     -0.888628   -1.068009   -0.967316
  O      2.592888   -0.262901   -0.246921
  H      0.924623   -0.419325    1.003172
  H      0.781106    0.777139   -0.317345
  H      0.927082   -1.033684   -1.980284
  H      2.719359   -1.993708   -0.423725
  H     -1.272310   -1.484297   -0.118384
  H     -1.289907   -1.627155   -1.717273
  H      3.036625    0.268119    0.422047

 Multiplicity           Mult            ....    1
 Number of Electrons    NEL             ....   56
 Basis Dimension        Dim             ....  133

ORBITAL ENERGIES
----------------

  NO   OCC          E(Eh)            E(eV)
   0   2.0000     -19.256970      -524.0088
   1   2.0000     -19.237925      -523.4905
   2   2.0000     -19.184777      -522.0443
   3   2.0000     -14.380645      -391.3172
   4   2.0000     -10.348079      -281.5856
   5   2.0000     -10.306803      -280.4624
   6   2.0000     -10.281088      -279.7626
   7   2.0000      -1.114919       -30.3385
   8   2.0000      -1.081878       -29.4394
   9   2.0000      -1.026967       -27.9452
  10   2.0000      -0.920285       -25.0422
  11   2.0000      -0.769543       -20.9403
  12   2.0000      -0.665834       -18.1183
  13   2.0000      -0.620485       -16.8843
  14   2.0000      -0.577817       -15.7232
  15   2.0000      -0.560698       -15.2574
  16   2.0000      -0.514260       -13.9937
  17   2.0000      -0.477186       -12.9849
  18   2.0000      -0.468572       -12.7505
  19   2.0000      -0.449662       -12.2359
  20   2.0000      -0.441503       -12.0139
  21   2.0000      -0.420782       -11.4501
  22   2.0000      -0.394994       -10.7483
  23   2.0000      -0.370928       -10.0935
  24   2.0000      -0.328391        -8.9360
  25   2.0000      -0.320908        -8.7323
  26   2.0000      -0.285537        -7.7698
  27   2.0000      -0.263450        -7.1688
  28   0.0000       0.020266         0.5515
  29   0.0000       0.037822         1.0292
  30   0.0000       0.072757         1.9798
  31   0.0000       0.093478         2.5437
  32   0.0000       0.118986         3.2378

MULLIKEN ATOMIC CHARGES
-----------------------
   0 C :    0.172393
   1 C :   -0.150678
   2 C :    0.183901
   3 O :   -0.233535
   4 O :   -0.198108
   5 N :   -0.216316
   6 O :   -0.344974
   7 H :    0.037777
   8 H :    0.054369
   9 H :    0.074454
  10 H :    0.188409
  11 H :    0.112949
  12 H :    0.121047
  13 H :    0.198313
Sum of atomic charges:   -0.0000000

LOEWDIN ATOMIC CHARGES
----------------------
   0 C :    0.066677
   1 C :   -0.058253
   2 C :    0.052259
   3 O :   -0.179732
   4 O :   -0.037423
   5 N :   -0.094937
   6 O :   -0.115753
   7 H :    0.016071
   8 H :    0.024979
   9 H :    0.046230
  10 H :    0.058366
  11 H :    0.060997
  12 H :    0.067319
  13 H :    0.093200

  Mayer bond orders larger than 0.1
B(  0-C ,  1-C ) :   1.0189 B(  0-C ,  6-O ) :   0.9825 B(  0-C ,  7-H ) :   0.9459
B(  0-C ,  8-H ) :   0.9440 B(  1-C ,  2-C ) :   0.8858 B(  1-C ,  5-N ) :   1.1137
B(  1-C ,  9-H ) :   0.9087 B(  2-C ,  3-O ) :   2.1338 B(  2-C ,  4-O ) :   1.2344
B(  4-O , 10-H ) :   0.9003 B(  5-N , 11-H ) :   0.9656 B(  5-N , 12-H ) :   0.9624
B(  6-O , 10-H ) :   0.1332 B(  6-O , 13-H ) :   0.9588

FINAL SINGLE POINT ENERGY      -398.233093988061

DIPOLE MOMENT
-------------
                                X             Y             Z
Electronic contribution:      1.68522      -4.30774      -0.18425
Nuclear contribution   :     -1.18915       5.92003       0.62031
                        -----------------------------------------
Total Dipole Moment    :      0.49607       1.61229       0.43605
                        -----------------------------------------
Magnitude (a.u.)       :      1.74233
Magnitude (Debye)      :      4.42864

VIBRATIONAL FREQUENCIES
-----------------------

   0:         0.00 cm**-1
   1:         0.00 cm**-1
   2:         0.00 cm**-1
   3:         0.00 cm**-1
   4:         0.00 cm**-1
   5:         0.00 cm**-1
   6:        73.35 cm**-1
   7:       146.91 cm**-1
   8:       173.65 cm**-1
   9:       284.77 cm**-1
  10:       312.11 cm**-1
  11:       317.09 cm**-1
  12:       359.03 cm**-1
  13:       433.25 cm**-1
  14:       556.01 cm**-1
  15:       622.70 cm**-1
  16:       753.63 cm**-1
  17:       811.25 cm**-1
  18:       840.02 cm**-1
  19:       921.48 cm**-1
  20:      1011.30 cm**-1
  21:      1064.56 cm**-1
  22:      1114.44 cm**-1
  23:      1160.55 cm**-1
  24:      1210.97 cm**-1
  25:      1237.50 cm**-1
  26:      1254.85 cm**-1
  27:      1302.27 cm**-1
  28:      1342.96 cm**-1
  29:      1388.82 cm**-1
  30:      1449.29 cm**-1
  31:      1471.84 cm**-1
  32:      1507.22 cm**-1
  33:      1657.94 cm**-1
  34:      1913.41 cm**-1
  35:      3024.38 cm**-1
  36:      3057.53 cm**-1
  37:      3106.18 cm**-1
  38:      3538.33 cm**-1
  39:      3544.80 cm**-1
  40:      3614.74 cm**-1
  41:      3898.56 cm**-1

IR SPECTRUM
-----------

 Mode    freq (cm**-1)   T**2         TX         TY         TZ
-------------------------------------------------------------------
   6:        73.35   12.446079  ( -0.321634  -1.510658  -3.171836)
   7:       146.91   19.155467  (  0.063685  -0.996529  -4.261260)
   8:       173.65   26.039107  (  0.702638  -1.047677   4.944470)
   9:       284.77    5.579364  ( -1.161550   0.143866   2.051699)
  10:       312.11   24.181523  (  4.841916   0.779823  -0.359509)
  11:       317.09   73.549175  (  0.249227   8.182254  -2.556907)
  12:       359.03   53.763543  ( -1.117109   4.082019  -5.987715)
  13:       433.25    6.612246  (  0.220264   2.526817  -0.422996)
  14:       556.01    2.567958  ( -1.228172  -0.240139  -1.000942)
  15:       622.70   22.317038  (  3.916844   2.012583  -1.710229)
  16:       753.63    6.671315  (  0.830895  -0.116994   2.442794)
  17:       811.25   72.800959  (  1.132814  -1.146282  -8.378766)
  18:       840.02   28.089151  (  1.973483  -2.367179  -4.311726)
  19:       921.48  148.289151  ( -8.706372   8.414228  -1.299619)
  20:      1011.30    8.308635  (  2.468797  -1.347696   0.630391)
  21:      1064.56   65.148282  ( -7.631832   2.528984   0.712503)
  22:      1114.44   38.061436  ( -6.160761  -0.324965   0.029271)
  23:      1160.55   17.961392  ( -4.159397   0.767994   0.266445)
  24:      1210.97   37.092376  ( -5.978967  -1.147965  -0.162803)
  25:      1237.50    1.090887  ( -0.567498   0.407538   0.776367)
  26:      1254.85   28.610382  ( -3.725997   2.663524  -2.762783)
  27:      1302.27   34.464566  (  5.661292  -1.245516  -0.928994)
  28:      1342.96    0.060189  ( -0.120619   0.040754  -0.209712)
  29:      1388.82    7.899532  (  2.708904  -0.686760   0.299554)
  30:      1449.29   19.833518  (  4.145488  -1.465508  -0.707627)
  31:      1471.84  325.534065  (-16.254852   7.463272  -2.369265)
  32:      1507.22    9.642782  ( -2.285272   1.975490   0.719548)
  33:      1657.94   21.865593  (  3.284853   3.218802  -0.845371)
  34:      1913.41  323.365982  (-11.430582 -13.881858  -0.042338)
  35:      3024.38   32.140861  ( -2.745431   1.935832   4.566840)
  36:      3057.53   13.802741  (  2.551498  -1.025954  -2.498002)
  37:      3106.18   25.211115  (  0.843677  -4.124239   2.736782)
  38:      3538.33   15.171578  ( -2.047859  -3.312221   0.083924)
  39:      3544.80  463.403646  (  8.960930  19.365533   2.842800)
  40:      3614.74   10.956813  (  0.791989   0.551960   3.166213)
  41:      3898.56   82.063874  ( -5.618828  -4.494977  -5.503437)

--------------------------
THERMOCHEMISTRY AT 298.15K
--------------------------

Temperature         ... 298.15 K
Pressure            ... 1.00 atm
Total Mass          ... 105.09 AMU

Throughout the following assumptions are being made:
  (1) The electronic state is orbitally nondegenerate
  (2) There are no thermally accessible electronically excited states
  (3) Hindered rotations indicated by low frequency modes are not
      treated as such but are treated as vibrations and this may
      cause some error
  (4) All equations used are the standard statistical mechanics
      equations for an ideal gas
  (5) All vibrations are strictly harmonic

freq.      73.35  E(vib)   ...       0.49
freq.     146.91  E(vib)   ...       0.41
freq.     173.65  E(vib)   ...       0.38
freq.     284.77  E(vib)   ...       0.28
freq.     312.11  E(vib)   ...       0.25
freq.     317.09  E(vib)   ...       0.25
freq.     359.03  E(vib)   ...       0.22
freq.     433.25  E(vib)   ...       0.17
freq.     556.01  E(vib)   ...       0.12
freq.     622.70  E(vib)   ...       0.09
freq.     753.63  E(vib)   ...       0.06
freq.     811.25  E(vib)   ...       0.05
freq.     840.02  E(vib)   ...       0.04
freq.     921.48  E(vib)   ...       0.03
freq.    1011.30  E(vib)   ...       0.02
freq.    1064.56  E(vib)   ...       0.02
freq.    1114.44  E(vib)   ...       0.01
freq.    1160.55  E(vib)   ...       0.01
freq.    1210.97  E(vib)   ...       0.01
freq.    1237.50  E(vib)   ...       0.01
freq.    1254.85  E(vib)   ...       0.01
freq.    1302.27  E(vib)   ...       0.01
freq.    1342.96  E(vib)   ...       0.01
freq.    1388.82  E(vib)   ...       0.00
freq.    1449.29  E(vib)   ...       0.00
freq.    1471.84  E(vib)   ...       0.00
freq.    1507.22  E(vib)   ...       0.00
freq.    1657.94  E(vib)   ...       0.00
freq.    1913.41  E(vib)   ...       0.00
freq.    3024.38  E(vib)   ...       0.00
freq.    3057.53  E(vib)   ...       0.00
freq.    3106.18  E(vib)   ...       0.00
freq.    3538.33  E(vib)   ...       0.00
freq.    3544.80  E(vib)   ...       0.00
freq.    3614.74  E(vib)   ...       0.00
freq.    3898.56  E(vib)   ...       0.00

------------
INNER ENERGY
------------

The inner energy is: U= E(el) + E(ZPE) + E(vib) + E(rot) + E(trans)
    E(el)   - is the total energy from the electronic structure calculation
              = E(kin-el) + E(nuc-el) + E(el-el) + E(nuc-nuc)
    E(ZPE)  - the the zero temperature vibrational energy from the frequency calculation
    E(vib)  - the the finite temperature correction to E(ZPE) due to population
              of excited vibrational states
    E(rot)  - is the rotational thermal energy
    E(trans)- is the translational thermal energy

Summary of contributions to the inner energy U:
Electronic energy                ...   -398.23309399 Eh
Zero point energy                ...      0.11499667 Eh      72.16 kcal/mol
Thermal vibrational correction   ...      0.00473112 Eh       2.97 kcal/mol
Thermal rotational correction    ...      0.00141627 Eh       0.89 kcal/mol
Thermal translational correction ...      0.00141627 Eh       0.89 kcal/mol
-----------------------------------------------------------------------
Total thermal energy                   -398.11053365 Eh

Summary of corrections to the electronic energy:
(perhaps to be used in another calculation)
Total thermal correction                  0.00756367 Eh       4.75 kcal/mol
Non-thermal (ZPE) correction              0.11499667 Eh      72.16 kcal/mol
-----------------------------------------------------------------------
Total correction                          0.12256034 Eh      76.91 kcal/mol

--------
ENTHALPY
--------

The enthalpy is H = U + kB*T
                kB is Boltzmann's constant
Total free energy                 ...   -398.11053365 Eh
Thermal Enthalpy correction       ...      0.00094421 Eh       0.59 kcal/mol
-----------------------------------------------------------------------
Total Enthalpy                    ...   -398.10958944 Eh

Vibrational entropy computed according to the QRRHO of S. Grimme
Chem.Eur.J. 2012 18 9955

check

-------
ENTROPY
-------

The entropy contributions are T*S = T*(S(el)+S(vib)+S(rot)+S(trans)
     S(el)   - electronic entropy
     S(vib)  - vibrational entropy
     S(rot)  - rotational entropy
     S(trans)- translational entropy
The entropies will be listed as mutliplied by the temperature to get
units of energy

Electronic entropy                ...      0.00000000 Eh      0.00 kcal/mol
Vibrational entropy               ...      0.00797481 Eh      5.00 kcal/mol
Rotational entropy                ...      0.01205414 Eh      7.56 kcal/mol
Translational entropy             ...      0.01894160 Eh     11.89 kcal/mol
-----------------------------------------------------------------------
Final entropy term                ...      0.03897055 Eh     24.45 kcal/mol

CAUTION: The rotational entropy is not quite correctly treated here
         because it includes a symmetry number that is not yet correctly
         implemented in ORCA!
For a nonlinear molecule the correct rotational entropy is:
    S(rot) = R*(ln(qrot/sn)+1.5)
    R    = 8.31441 J/mol/K = 1.987191683e-3 kcal/mol/K
    qrot = 234539.1182342
    sn is the rotational symmetry number. We have assumed 3 here
       if it is different for your molecule then you should correct
       the printed rotational entropy by manually evaluating the equation
       as given above

For convenience we print out the resulting values for sn=1 - 12:
 sn= 1  qrot/sn=  234539.1182 T*S(rot)=     8.21 kcal/mol T*S(tot)=    25.11 kcal/mol
 sn= 2  qrot/sn=  117269.5591 T*S(rot)=     7.80 kcal/mol T*S(tot)=    24.69 kcal/mol
 sn= 3  qrot/sn=   78179.7061 T*S(rot)=     7.56 kcal/mol T*S(tot)=    24.45 kcal/mol
 sn= 4  qrot/sn=   58634.7796 T*S(rot)=     7.39 kcal/mol T*S(tot)=    24.28 kcal/mol
 sn= 5  qrot/sn=   46907.8236 T*S(rot)=     7.26 kcal/mol T*S(tot)=    24.15 kcal/mol
 sn= 6  qrot/sn=   39089.8530 T*S(rot)=     7.15 kcal/mol T*S(tot)=    24.04 kcal/mol
 sn= 7  qrot/sn=   33505.5883 T*S(rot)=     7.06 kcal/mol T*S(tot)=    23.95 kcal/mol
 sn= 8  qrot/sn=   29317.3898 T*S(rot)=     6.98 kcal/mol T*S(tot)=    23.87 kcal/mol
 sn= 9  qrot/sn=   26059.9020 T*S(rot)=     6.91 kcal/mol T*S(tot)=    23.80 kcal/mol
 sn=10  qrot/sn=   23453.9118 T*S(rot)=     6.85 kcal/mol T*S(tot)=    23.74 kcal/mol
 sn=11  qrot/sn=   21321.7380 T*S(rot)=     6.79 kcal/mol T*S(tot)=    23.68 kcal/mol
 sn=12  qrot/sn=   19544.9265 T*S(rot)=     6.74 kcal/mol T*S(tot)=    23.63 kcal/mol

-------------------
GIBBS FREE ENTHALPY
-------------------

The Gibbs free enthalpy is G = H - T*S

Total enthalpy                    ...   -398.10958944 Eh
Total entropy correction          ...     -0.03897055 Eh    -24.45 kcal/mol
-----------------------------------------------------------------------
Final Gibbs free enthalpy         ...   -398.14855999 Eh

For completeness - the Gibbs free enthalpy minus the electronic energy

                             ****ORCA TERMINATED NORMALLY****
TOTAL RUN TIME: 0 days 0 hours 18 minutes 3 seconds 800 msec
