                         Program Version 4.0.0 -  RELEASE  -
|  1> ! PBE0
|  2> ! opt anfreq
|  3> * xyzfile 0 1 proline.xyz **                         ****END OF INPUT****
 Total Charge           Charge          ....    0
 Multiplicity           Mult            ....    1
 Number of Electrons    NEL             ....   62
FINAL SINGLE POINT ENERGY      -400.400545774242
FINAL SINGLE POINT ENERGY      -400.409087941224
FINAL SINGLE POINT ENERGY      -400.413348108342
FINAL SINGLE POINT ENERGY      -400.416567084014
FINAL SINGLE POINT ENERGY      -400.419471721933
FINAL SINGLE POINT ENERGY      -400.421629023697
FINAL SINGLE POINT ENERGY      -400.423286148211
FINAL SINGLE POINT ENERGY      -400.424735812466
FINAL SINGLE POINT ENERGY      -400.425601146868
FINAL SINGLE POINT ENERGY      -400.426012026211
FINAL SINGLE POINT ENERGY      -400.426114994158
FINAL SINGLE POINT ENERGY      -400.426181244249
FINAL SINGLE POINT ENERGY      -400.426266249765
FINAL SINGLE POINT ENERGY      -400.426385646946
FINAL SINGLE POINT ENERGY      -400.426409523150
FINAL SINGLE POINT ENERGY      -400.426421300269
                    ***********************HURRAY********************

CARTESIAN COORDINATES (ANGSTROEM)
---------------------------------
  C     -0.614714   -1.004545   -0.304339
  C     -1.229078    0.320766    0.138401
  C     -0.102451    1.317072   -0.156018
  N      1.144590    0.542351   -0.074559
  C      0.829116   -0.870998    0.165960
  C     -0.248364    1.923005   -1.564849
  O     -1.216721    2.547744   -1.903262
  O      0.793751    1.672753   -2.338957
  H     -0.650499   -1.094405   -1.402873
  H     -1.117171   -1.886577    0.117033
  H     -1.442602    0.299300    1.218814
  H     -2.155064    0.593406   -0.385209
  H     -0.115701    2.165883    0.546507
  H      1.804610    0.919125    0.598249
  H      0.903046   -1.126461    1.239354
  H      1.522098   -1.531103   -0.378911
  H      1.376024    1.120893   -1.750932

 Multiplicity           Mult            ....    1
 Number of Electrons    NEL             ....   62
 Basis Dimension        Dim             ....  157

ORBITAL ENERGIES
----------------

  NO   OCC          E(Eh)            E(eV)
   0   2.0000     -19.231181      -523.3070
   1   2.0000     -19.174418      -521.7624
   2   2.0000     -14.416910      -392.3041
   3   2.0000     -10.340019      -281.3662
   4   2.0000     -10.282819      -279.8097
   5   2.0000     -10.278689      -279.6974
   6   2.0000     -10.250002      -278.9167
   7   2.0000     -10.248891      -278.8865
   8   2.0000      -1.107664       -30.1411
   9   2.0000      -1.020414       -27.7669
  10   2.0000      -0.968625       -26.3576
  11   2.0000      -0.805427       -21.9168
  12   2.0000      -0.773717       -21.0539
  13   2.0000      -0.647881       -17.6297
  14   2.0000      -0.617874       -16.8132
  15   2.0000      -0.596523       -16.2322
  16   2.0000      -0.565026       -15.3751
  17   2.0000      -0.546596       -14.8736
  18   2.0000      -0.491244       -13.3674
  19   2.0000      -0.468062       -12.7366
  20   2.0000      -0.457336       -12.4448
  21   2.0000      -0.435508       -11.8508
  22   2.0000      -0.423112       -11.5135
  23   2.0000      -0.415157       -11.2970
  24   2.0000      -0.384125       -10.4526
  25   2.0000      -0.378737       -10.3060
  26   2.0000      -0.371602       -10.1118
  27   2.0000      -0.353622        -9.6225
  28   2.0000      -0.312531        -8.5044
  29   2.0000      -0.298725        -8.1287
  30   2.0000      -0.254949        -6.9375
  31   0.0000       0.021637         0.5888
  32   0.0000       0.047937         1.3044
  33   0.0000       0.075023         2.0415
  34   0.0000       0.091439         2.4882
  35   0.0000       0.106303         2.8927

MULLIKEN ATOMIC CHARGES
-----------------------
   0 C :   -0.106824
   1 C :   -0.039049
   2 C :   -0.097228
   3 N :   -0.378733
   4 C :    0.108804
   5 C :    0.230228
   6 O :   -0.247561
   7 O :   -0.194584
   8 H :    0.065117
   9 H :    0.056082
  10 H :    0.044068
  11 H :    0.074424
  12 H :    0.071909
  13 H :    0.143541
  14 H :    0.035005
  15 H :    0.049093
  16 H :    0.185708
Sum of atomic charges:   -0.0000000

LOEWDIN ATOMIC CHARGES
----------------------
   0 C :   -0.051585
   1 C :   -0.034091
   2 C :   -0.024990
   3 N :   -0.098082
   4 C :    0.023689
   5 C :    0.052361
   6 O :   -0.187811
   7 O :   -0.039575
   8 H :    0.036136
   9 H :    0.035959
  10 H :    0.030659
  11 H :    0.041959
  12 H :    0.042710
  13 H :    0.071288
  14 H :    0.016829
  15 H :    0.025267
  16 H :    0.059277

  Mayer bond orders larger than 0.1
B(  0-C ,  1-C ) :   1.0601 B(  0-C ,  4-C ) :   1.0568 B(  0-C ,  8-H ) :   0.9470
B(  0-C ,  9-H ) :   0.9532 B(  1-C ,  2-C ) :   1.0585 B(  1-C , 10-H ) :   0.9437
B(  1-C , 11-H ) :   0.9482 B(  2-C ,  3-N ) :   0.9769 B(  2-C ,  5-C ) :   0.8902
B(  2-C , 12-H ) :   0.9155 B(  3-N ,  4-C ) :   0.9769 B(  3-N , 13-H ) :   0.9357
B(  3-N , 16-H ) :   0.1647 B(  4-C , 14-H ) :   0.9537 B(  4-C , 15-H ) :   0.9525
B(  5-C ,  6-O ) :   2.0986 B(  5-C ,  7-O ) :   1.2651 B(  7-O , 16-H ) :   0.8747

FINAL SINGLE POINT ENERGY      -400.426422242621

DIPOLE MOMENT
-------------
                                X             Y             Z
Electronic contribution:      0.20572       6.18877      -4.71143
Nuclear contribution   :      0.63331      -7.42386       6.36311
                        -----------------------------------------
Total Dipole Moment    :      0.83903      -1.23509       1.65168
                        -----------------------------------------
Magnitude (a.u.)       :      2.22654
Magnitude (Debye)      :      5.65941

VIBRATIONAL FREQUENCIES
-----------------------

   0:         0.00 cm**-1
   1:         0.00 cm**-1
   2:         0.00 cm**-1
   3:         0.00 cm**-1
   4:         0.00 cm**-1
   5:         0.00 cm**-1
   6:        66.80 cm**-1
   7:       117.39 cm**-1
   8:       210.03 cm**-1
   9:       313.99 cm**-1
  10:       368.68 cm**-1
  11:       485.49 cm**-1
  12:       573.75 cm**-1
  13:       606.28 cm**-1
  14:       636.72 cm**-1
  15:       746.77 cm**-1
  16:       819.71 cm**-1
  17:       870.61 cm**-1
  18:       890.89 cm**-1
  19:       921.33 cm**-1
  20:       941.97 cm**-1
  21:       973.67 cm**-1
  22:       980.98 cm**-1
  23:       991.03 cm**-1
  24:      1061.50 cm**-1
  25:      1095.84 cm**-1
  26:      1156.11 cm**-1
  27:      1171.82 cm**-1
  28:      1210.32 cm**-1
  29:      1245.67 cm**-1
  30:      1263.83 cm**-1
  31:      1268.05 cm**-1
  32:      1305.70 cm**-1
  33:      1310.62 cm**-1
  34:      1347.29 cm**-1
  35:      1376.48 cm**-1
  36:      1426.86 cm**-1
  37:      1459.92 cm**-1
  38:      1472.81 cm**-1
  39:      1489.41 cm**-1
  40:      1509.06 cm**-1
  41:      1924.89 cm**-1
  42:      3032.63 cm**-1
  43:      3076.53 cm**-1
  44:      3084.42 cm**-1
  45:      3100.97 cm**-1
  46:      3113.66 cm**-1
  47:      3152.65 cm**-1
  48:      3167.47 cm**-1
  49:      3327.52 cm**-1
  50:      3612.79 cm**-1

IR SPECTRUM
-----------

 Mode    freq (cm**-1)   T**2         TX         TY         TZ
-------------------------------------------------------------------
   6:        66.80    2.048249  (  0.166592   1.285626   0.606351)
   7:       117.39    0.687498  (  0.368149  -0.315823  -0.672473)
   8:       210.03    6.813957  ( -1.237866  -1.767911   1.468378)
   9:       313.99    5.176356  (  0.552081   1.481785  -1.635811)
  10:       368.68   13.214178  ( -1.275190   1.433395  -3.087628)
  11:       485.49    1.502822  (  0.971833   0.360067   0.654763)
  12:       573.75    5.843685  ( -0.429176  -0.189497   2.371410)
  13:       606.28   10.193931  (  2.445337   1.584864  -1.304784)
  14:       636.72   21.954549  ( -2.908958  -1.226649   3.462346)
  15:       746.77   17.691580  (  2.856396  -1.558384  -2.665337)
  16:       819.71    6.523017  ( -0.105230  -0.454180   2.511108)
  17:       870.61    3.807894  (  1.108260   0.271796  -1.582966)
  18:       890.89    1.872969  (  0.681929  -1.185644   0.046791)
  19:       921.33   11.086297  ( -2.287807  -0.397459   2.386265)
  20:       941.97    3.527482  (  1.779146   0.599323   0.054140)
  21:       973.67    5.863334  (  2.166464   0.842931  -0.677670)
  22:       980.98   19.857976  (  1.829995   3.949572   0.953925)
  23:       991.03   65.304626  ( -5.860060  -5.548975   0.416182)
  24:      1061.50    3.987568  (  1.769917   0.390806  -0.837993)
  25:      1095.84    1.035674  ( -0.998560   0.086458  -0.176287)
  26:      1156.11   32.305492  ( -0.758626   5.195269  -2.176961)
  27:      1171.82   12.516034  (  2.933312  -0.393323  -1.938302)
  28:      1210.32    3.411164  ( -1.754686  -0.377996   0.435156)
  29:      1245.67    9.370918  ( -2.289595   1.763094  -1.010036)
  30:      1263.83   15.488968  (  1.925183  -3.432585  -0.000331)
  31:      1268.05    6.090496  ( -0.947747  -1.695578   1.522263)
  32:      1305.70   26.234602  (  1.577656  -4.109998   2.617923)
  33:      1310.62    4.003635  (  0.859047  -1.481348   1.035026)
  34:      1347.29    0.853377  (  0.294999  -0.211517  -0.849478)
  35:      1376.48    4.237525  (  0.624474   1.535038  -1.221154)
  36:      1426.86   24.785120  (  3.651842  -2.472448  -2.310015)
  37:      1459.92    6.311239  ( -0.283623   1.624809   1.894939)
  38:      1472.81   10.304779  (  3.008901   1.054410  -0.373511)
  39:      1489.41  302.653371  (-10.320807  -2.671467  13.747639)
  40:      1509.06  111.815577  (  5.697592   1.043977  -8.846646)
  41:      1924.89  362.442608  (-13.265126  11.585998  -7.227981)
  42:      3032.63   59.770530  ( -2.622994   4.849164  -5.419967)
  43:      3076.53    7.929071  (  2.100015   1.496099   1.131678)
  44:      3084.42   16.364742  ( -1.281688  -0.383668   3.817698)
  45:      3100.97   14.189940  (  0.933477  -2.822270  -2.313731)
  46:      3113.66   25.479874  ( -2.390333   3.531612   2.700722)
  47:      3152.65   13.638084  ( -1.478089  -2.491472   2.290394)
  48:      3167.47    3.342765  (  0.505736  -0.175410   1.748207)
  49:      3327.52  460.727669  ( -8.321054  13.032447 -14.887682)
  50:      3612.79   17.308002  ( -2.523374  -1.645107  -2.869531)

--------------------------
THERMOCHEMISTRY AT 298.15K
--------------------------

Temperature         ... 298.15 K
Pressure            ... 1.00 atm
Total Mass          ... 115.13 AMU

Throughout the following assumptions are being made:
  (1) The electronic state is orbitally nondegenerate
  (2) There are no thermally accessible electronically excited states
  (3) Hindered rotations indicated by low frequency modes are not
      treated as such but are treated as vibrations and this may
      cause some error
  (4) All equations used are the standard statistical mechanics
      equations for an ideal gas
  (5) All vibrations are strictly harmonic

freq.      66.80  E(vib)   ...       0.50
freq.     117.39  E(vib)   ...       0.44
freq.     210.03  E(vib)   ...       0.34
freq.     313.99  E(vib)   ...       0.25
freq.     368.68  E(vib)   ...       0.21
freq.     485.49  E(vib)   ...       0.15
freq.     573.75  E(vib)   ...       0.11
freq.     606.28  E(vib)   ...       0.10
freq.     636.72  E(vib)   ...       0.09
freq.     746.77  E(vib)   ...       0.06
freq.     819.71  E(vib)   ...       0.05
freq.     870.61  E(vib)   ...       0.04
freq.     890.89  E(vib)   ...       0.04
freq.     921.33  E(vib)   ...       0.03
freq.     941.97  E(vib)   ...       0.03
freq.     973.67  E(vib)   ...       0.03
freq.     980.98  E(vib)   ...       0.02
freq.     991.03  E(vib)   ...       0.02
freq.    1061.50  E(vib)   ...       0.02
freq.    1095.84  E(vib)   ...       0.02
freq.    1156.11  E(vib)   ...       0.01
freq.    1171.82  E(vib)   ...       0.01
freq.    1210.32  E(vib)   ...       0.01
freq.    1245.67  E(vib)   ...       0.01
freq.    1263.83  E(vib)   ...       0.01
freq.    1268.05  E(vib)   ...       0.01
freq.    1305.70  E(vib)   ...       0.01
freq.    1310.62  E(vib)   ...       0.01
freq.    1347.29  E(vib)   ...       0.01
freq.    1376.48  E(vib)   ...       0.01
freq.    1426.86  E(vib)   ...       0.00
freq.    1459.92  E(vib)   ...       0.00
freq.    1472.81  E(vib)   ...       0.00
freq.    1489.41  E(vib)   ...       0.00
freq.    1509.06  E(vib)   ...       0.00
freq.    1924.89  E(vib)   ...       0.00
freq.    3032.63  E(vib)   ...       0.00
freq.    3076.53  E(vib)   ...       0.00
freq.    3084.42  E(vib)   ...       0.00
freq.    3100.97  E(vib)   ...       0.00
freq.    3113.66  E(vib)   ...       0.00
freq.    3152.65  E(vib)   ...       0.00
freq.    3167.47  E(vib)   ...       0.00
freq.    3327.52  E(vib)   ...       0.00
freq.    3612.79  E(vib)   ...       0.00

------------
INNER ENERGY
------------

The inner energy is: U= E(el) + E(ZPE) + E(vib) + E(rot) + E(trans)
    E(el)   - is the total energy from the electronic structure calculation
              = E(kin-el) + E(nuc-el) + E(el-el) + E(nuc-nuc)
    E(ZPE)  - the the zero temperature vibrational energy from the frequency calculation
    E(vib)  - the the finite temperature correction to E(ZPE) due to population
              of excited vibrational states
    E(rot)  - is the rotational thermal energy
    E(trans)- is the translational thermal energy

Summary of contributions to the inner energy U:
Electronic energy                ...   -400.42642224 Eh
Zero point energy                ...      0.14644275 Eh      91.89 kcal/mol
Thermal vibrational correction   ...      0.00421420 Eh       2.64 kcal/mol
Thermal rotational correction    ...      0.00141627 Eh       0.89 kcal/mol
Thermal translational correction ...      0.00141627 Eh       0.89 kcal/mol
-----------------------------------------------------------------------
Total thermal energy                   -400.27293275 Eh

Summary of corrections to the electronic energy:
(perhaps to be used in another calculation)
Total thermal correction                  0.00704674 Eh       4.42 kcal/mol
Non-thermal (ZPE) correction              0.14644275 Eh      91.89 kcal/mol
-----------------------------------------------------------------------
Total correction                          0.15348949 Eh      96.32 kcal/mol

--------
ENTHALPY
--------

The enthalpy is H = U + kB*T
                kB is Boltzmann's constant
Total free energy                 ...   -400.27293275 Eh
Thermal Enthalpy correction       ...      0.00094421 Eh       0.59 kcal/mol
-----------------------------------------------------------------------
Total Enthalpy                    ...   -400.27198854 Eh

Vibrational entropy computed according to the QRRHO of S. Grimme
Chem.Eur.J. 2012 18 9955

check

-------
ENTROPY
-------

The entropy contributions are T*S = T*(S(el)+S(vib)+S(rot)+S(trans)
     S(el)   - electronic entropy
     S(vib)  - vibrational entropy
     S(rot)  - rotational entropy
     S(trans)- translational entropy
The entropies will be listed as mutliplied by the temperature to get
units of energy

Electronic entropy                ...      0.00000000 Eh      0.00 kcal/mol
Vibrational entropy               ...      0.00700584 Eh      4.40 kcal/mol
Rotational entropy                ...      0.01225361 Eh      7.69 kcal/mol
Translational entropy             ...      0.01907081 Eh     11.97 kcal/mol
-----------------------------------------------------------------------
Final entropy term                ...      0.03833025 Eh     24.05 kcal/mol

CAUTION: The rotational entropy is not quite correctly treated here
         because it includes a symmetry number that is not yet correctly
         implemented in ORCA!
For a nonlinear molecule the correct rotational entropy is:
    S(rot) = R*(ln(qrot/sn)+1.5)
    R    = 8.31441 J/mol/K = 1.987191683e-3 kcal/mol/K
    qrot = 289711.2733112
    sn is the rotational symmetry number. We have assumed 3 here
       if it is different for your molecule then you should correct
       the printed rotational entropy by manually evaluating the equation
       as given above

For convenience we print out the resulting values for sn=1 - 12:
 sn= 1  qrot/sn=  289711.2733 T*S(rot)=     8.34 kcal/mol T*S(tot)=    24.70 kcal/mol
 sn= 2  qrot/sn=  144855.6367 T*S(rot)=     7.93 kcal/mol T*S(tot)=    24.29 kcal/mol
 sn= 3  qrot/sn=   96570.4244 T*S(rot)=     7.69 kcal/mol T*S(tot)=    24.05 kcal/mol
 sn= 4  qrot/sn=   72427.8183 T*S(rot)=     7.52 kcal/mol T*S(tot)=    23.88 kcal/mol
 sn= 5  qrot/sn=   57942.2547 T*S(rot)=     7.39 kcal/mol T*S(tot)=    23.75 kcal/mol
 sn= 6  qrot/sn=   48285.2122 T*S(rot)=     7.28 kcal/mol T*S(tot)=    23.64 kcal/mol
 sn= 7  qrot/sn=   41387.3248 T*S(rot)=     7.19 kcal/mol T*S(tot)=    23.55 kcal/mol
 sn= 8  qrot/sn=   36213.9092 T*S(rot)=     7.11 kcal/mol T*S(tot)=    23.47 kcal/mol
 sn= 9  qrot/sn=   32190.1415 T*S(rot)=     7.04 kcal/mol T*S(tot)=    23.40 kcal/mol
 sn=10  qrot/sn=   28971.1273 T*S(rot)=     6.98 kcal/mol T*S(tot)=    23.34 kcal/mol
 sn=11  qrot/sn=   26337.3885 T*S(rot)=     6.92 kcal/mol T*S(tot)=    23.28 kcal/mol
 sn=12  qrot/sn=   24142.6061 T*S(rot)=     6.87 kcal/mol T*S(tot)=    23.23 kcal/mol

-------------------
GIBBS FREE ENTHALPY
-------------------

                             ****ORCA TERMINATED NORMALLY****
TOTAL RUN TIME: 0 days 0 hours 42 minutes 19 seconds 398 msec
